+ 0.1 1 0 tcp 40 ------- 0 1.0 0.0 0 0
- 0.1 1 0 tcp 40 ------- 0 1.0 0.0 0 0
+ 0.1 1 2 tcp 40 ------- 0 1.1 2.0 0 1
- 0.1 1 2 tcp 40 ------- 0 1.1 2.0 0 1
r 0.10832 1 0 tcp 40 ------- 0 1.0 0.0 0 0
+ 0.10832 0 1 ack 40 ------- 0 0.0 1.0 0 2
- 0.10832 0 1 ack 40 ------- 0 0.0 1.0 0 2
r 0.10832 1 2 tcp 40 ------- 0 1.1 2.0 0 1
+ 0.10832 2 1 ack 40 ------- 0 2.0 1.1 0 3
- 0.10832 2 1 ack 40 ------- 0 2.0 1.1 0 3
r 0.11664 0 1 ack 40 ------- 0 0.0 1.0 0 2
+ 0.11664 1 0 tcp 1040 ------- 0 1.0 0.0 1 4
- 0.11664 1 0 tcp 1040 ------- 0 1.0 0.0 1 4
+ 0.11664 1 0 tcp 1040 ------- 0 1.0 0.0 2 5
r 0.11664 2 1 ack 40 ------- 0 2.0 1.1 0 3
+ 0.11664 1 2 tcp 1040 ------- 0 1.1 2.0 1 6
- 0.11664 1 2 tcp 1040 ------- 0 1.1 2.0 1 6
+ 0.11664 1 2 tcp 1040 ------- 0 1.1 2.0 2 7
- 0.12496 1 0 tcp 1040 ------- 0 1.0 0.0 2 5
- 0.12496 1 2 tcp 1040 ------- 0 1.1 2.0 2 7
r 0.13296 1 0 tcp 1040 ------- 0 1.0 0.0 1 4
+ 0.13296 0 1 ack 40 ------- 0 0.0 1.0 1 8
- 0.13296 0 1 ack 40 ------- 0 0.0 1.0 1 8
r 0.13296 1 2 tcp 1040 ------- 0 1.1 2.0 1 6
+ 0.13296 2 1 ack 40 ------- 0 2.0 1.1 1 9
- 0.13296 2 1 ack 40 ------- 0 2.0 1.1 1 9
r 0.14128 1 0 tcp 1040 ------- 0 1.0 0.0 2 5
+ 0.14128 0 1 ack 40 ------- 0 0.0 1.0 2 10
- 0.14128 0 1 ack 40 ------- 0 0.0 1.0 2 10
r 0.14128 1 2 tcp 1040 ------- 0 1.1 2.0 2 7
+ 0.14128 2 1 ack 40 ------- 0 2.0 1.1 2 11
- 0.14128 2 1 ack 40 ------- 0 2.0 1.1 2 11
r 0.14128 0 1 ack 40 ------- 0 0.0 1.0 1 8
+ 0.14128 1 0 tcp 1040 ------- 0 1.0 0.0 3 12
- 0.14128 1 0 tcp 1040 ------- 0 1.0 0.0 3 12
+ 0.14128 1 0 tcp 1040 ------- 0 1.0 0.0 4 13
r 0.14128 2 1 ack 40 ------- 0 2.0 1.1 1 9
+ 0.14128 1 2 tcp 1040 ------- 0 1.1 2.0 3 14
- 0.14128 1 2 tcp 1040 ------- 0 1.1 2.0 3 14
+ 0.14128 1 2 tcp 1040 ------- 0 1.1 2.0 4 15
r 0.1496 0 1 ack 40 ------- 0 0.0 1.0 2 10
+ 0.1496 1 0 tcp 1040 ------- 0 1.0 0.0 5 16
+ 0.1496 1 0 tcp 1040 ------- 0 1.0 0.0 6 17
r 0.1496 2 1 ack 40 ------- 0 2.0 1.1 2 11
+ 0.1496 1 2 tcp 1040 ------- 0 1.1 2.0 5 18
+ 0.1496 1 2 tcp 1040 ------- 0 1.1 2.0 6 19
- 0.1496 1 0 tcp 1040 ------- 0 1.0 0.0 4 13
- 0.1496 1 2 tcp 1040 ------- 0 1.1 2.0 4 15
r 0.1576 1 0 tcp 1040 ------- 0 1.0 0.0 3 12
+ 0.1576 0 1 ack 40 ------- 0 0.0 1.0 3 20
- 0.1576 0 1 ack 40 ------- 0 0.0 1.0 3 20
r 0.1576 1 2 tcp 1040 ------- 0 1.1 2.0 3 14
+ 0.1576 2 1 ack 40 ------- 0 2.0 1.1 3 21
- 0.1576 2 1 ack 40 ------- 0 2.0 1.1 3 21
- 0.15792 1 0 tcp 1040 ------- 0 1.0 0.0 5 16
- 0.15792 1 2 tcp 1040 ------- 0 1.1 2.0 5 18
r 0.16592 1 0 tcp 1040 ------- 0 1.0 0.0 4 13
+ 0.16592 0 1 ack 40 ------- 0 0.0 1.0 4 22
- 0.16592 0 1 ack 40 ------- 0 0.0 1.0 4 22
r 0.16592 1 2 tcp 1040 ------- 0 1.1 2.0 4 15
+ 0.16592 2 1 ack 40 ------- 0 2.0 1.1 4 23
- 0.16592 2 1 ack 40 ------- 0 2.0 1.1 4 23
r 0.16592 0 1 ack 40 ------- 0 0.0 1.0 3 20
+ 0.16592 1 0 tcp 1040 ------- 0 1.0 0.0 7 24
+ 0.16592 1 0 tcp 1040 ------- 0 1.0 0.0 8 25
r 0.16592 2 1 ack 40 ------- 0 2.0 1.1 3 21
+ 0.16592 1 2 tcp 1040 ------- 0 1.1 2.0 7 26
+ 0.16592 1 2 tcp 1040 ------- 0 1.1 2.0 8 27
- 0.16624 1 0 tcp 1040 ------- 0 1.0 0.0 6 17
- 0.16624 1 2 tcp 1040 ------- 0 1.1 2.0 6 19
r 0.17424 1 0 tcp 1040 ------- 0 1.0 0.0 5 16
+ 0.17424 0 1 ack 40 ------- 0 0.0 1.0 5 28
- 0.17424 0 1 ack 40 ------- 0 0.0 1.0 5 28
r 0.17424 1 2 tcp 1040 ------- 0 1.1 2.0 5 18
+ 0.17424 2 1 ack 40 ------- 0 2.0 1.1 5 29
- 0.17424 2 1 ack 40 ------- 0 2.0 1.1 5 29
r 0.17424 0 1 ack 40 ------- 0 0.0 1.0 4 22
+ 0.17424 1 0 tcp 1040 ------- 0 1.0 0.0 9 30
+ 0.17424 1 0 tcp 1040 ------- 0 1.0 0.0 10 31
r 0.17424 2 1 ack 40 ------- 0 2.0 1.1 4 23
+ 0.17424 1 2 tcp 1040 ------- 0 1.1 2.0 9 32
+ 0.17424 1 2 tcp 1040 ------- 0 1.1 2.0 10 33
- 0.17456 1 0 tcp 1040 ------- 0 1.0 0.0 7 24
- 0.17456 1 2 tcp 1040 ------- 0 1.1 2.0 7 26
r 0.18256 1 0 tcp 1040 ------- 0 1.0 0.0 6 17
+ 0.18256 0 1 ack 40 ------- 0 0.0 1.0 6 34
- 0.18256 0 1 ack 40 ------- 0 0.0 1.0 6 34
r 0.18256 1 2 tcp 1040 ------- 0 1.1 2.0 6 19
+ 0.18256 2 1 ack 40 ------- 0 2.0 1.1 6 35
- 0.18256 2 1 ack 40 ------- 0 2.0 1.1 6 35
r 0.18256 0 1 ack 40 ------- 0 0.0 1.0 5 28
+ 0.18256 1 0 tcp 1040 ------- 0 1.0 0.0 11 36
+ 0.18256 1 0 tcp 1040 ------- 0 1.0 0.0 12 37
r 0.18256 2 1 ack 40 ------- 0 2.0 1.1 5 29
+ 0.18256 1 2 tcp 1040 ------- 0 1.1 2.0 11 38
+ 0.18256 1 2 tcp 1040 ------- 0 1.1 2.0 12 39
- 0.18288 1 0 tcp 1040 ------- 0 1.0 0.0 8 25
- 0.18288 1 2 tcp 1040 ------- 0 1.1 2.0 8 27
r 0.19088 1 0 tcp 1040 ------- 0 1.0 0.0 7 24
+ 0.19088 0 1 ack 40 ------- 0 0.0 1.0 7 40
- 0.19088 0 1 ack 40 ------- 0 0.0 1.0 7 40
r 0.19088 1 2 tcp 1040 ------- 0 1.1 2.0 7 26
+ 0.19088 2 1 ack 40 ------- 0 2.0 1.1 7 41
- 0.19088 2 1 ack 40 ------- 0 2.0 1.1 7 41
r 0.19088 0 1 ack 40 ------- 0 0.0 1.0 6 34
+ 0.19088 1 0 tcp 1040 ------- 0 1.0 0.0 13 42
+ 0.19088 1 0 tcp 1040 ------- 0 1.0 0.0 14 43
r 0.19088 2 1 ack 40 ------- 0 2.0 1.1 6 35
+ 0.19088 1 2 tcp 1040 ------- 0 1.1 2.0 13 44
+ 0.19088 1 2 tcp 1040 ------- 0 1.1 2.0 14 45
- 0.1912 1 0 tcp 1040 ------- 0 1.0 0.0 9 30
- 0.1912 1 2 tcp 1040 ------- 0 1.1 2.0 9 32
r 0.1992 1 0 tcp 1040 ------- 0 1.0 0.0 8 25
+ 0.1992 0 1 ack 40 ------- 0 0.0 1.0 8 46
- 0.1992 0 1 ack 40 ------- 0 0.0 1.0 8 46
r 0.1992 1 2 tcp 1040 ------- 0 1.1 2.0 8 27
+ 0.1992 2 1 ack 40 ------- 0 2.0 1.1 8 47
- 0.1992 2 1 ack 40 ------- 0 2.0 1.1 8 47
r 0.1992 0 1 ack 40 ------- 0 0.0 1.0 7 40
+ 0.1992 1 0 tcp 1040 ------- 0 1.0 0.0 15 48
+ 0.1992 1 0 tcp 1040 ------- 0 1.0 0.0 16 49
r 0.1992 2 1 ack 40 ------- 0 2.0 1.1 7 41
+ 0.1992 1 2 tcp 1040 ------- 0 1.1 2.0 15 50
+ 0.1992 1 2 tcp 1040 ------- 0 1.1 2.0 16 51
- 0.19952 1 0 tcp 1040 ------- 0 1.0 0.0 10 31
- 0.19952 1 2 tcp 1040 ------- 0 1.1 2.0 10 33
r 0.20752 1 0 tcp 1040 ------- 0 1.0 0.0 9 30
+ 0.20752 0 1 ack 40 ------- 0 0.0 1.0 9 52
- 0.20752 0 1 ack 40 ------- 0 0.0 1.0 9 52
r 0.20752 1 2 tcp 1040 ------- 0 1.1 2.0 9 32
+ 0.20752 2 1 ack 40 ------- 0 2.0 1.1 9 53
- 0.20752 2 1 ack 40 ------- 0 2.0 1.1 9 53
r 0.20752 0 1 ack 40 ------- 0 0.0 1.0 8 46
+ 0.20752 1 0 tcp 1040 ------- 0 1.0 0.0 17 54
+ 0.20752 1 0 tcp 1040 ------- 0 1.0 0.0 18 55
r 0.20752 2 1 ack 40 ------- 0 2.0 1.1 8 47
+ 0.20752 1 2 tcp 1040 ------- 0 1.1 2.0 17 56
+ 0.20752 1 2 tcp 1040 ------- 0 1.1 2.0 18 57
- 0.20784 1 0 tcp 1040 ------- 0 1.0 0.0 11 36
- 0.20784 1 2 tcp 1040 ------- 0 1.1 2.0 11 38
r 0.21584 1 0 tcp 1040 ------- 0 1.0 0.0 10 31
+ 0.21584 0 1 ack 40 ------- 0 0.0 1.0 10 58
- 0.21584 0 1 ack 40 ------- 0 0.0 1.0 10 58
r 0.21584 1 2 tcp 1040 ------- 0 1.1 2.0 10 33
+ 0.21584 2 1 ack 40 ------- 0 2.0 1.1 10 59
- 0.21584 2 1 ack 40 ------- 0 2.0 1.1 10 59
r 0.21584 0 1 ack 40 ------- 0 0.0 1.0 9 52
+ 0.21584 1 0 tcp 1040 ------- 0 1.0 0.0 19 60
+ 0.21584 1 0 tcp 1040 ------- 0 1.0 0.0 20 61
r 0.21584 2 1 ack 40 ------- 0 2.0 1.1 9 53
+ 0.21584 1 2 tcp 1040 ------- 0 1.1 2.0 19 62
+ 0.21584 1 2 tcp 1040 ------- 0 1.1 2.0 20 63
- 0.21616 1 0 tcp 1040 ------- 0 1.0 0.0 12 37
- 0.21616 1 2 tcp 1040 ------- 0 1.1 2.0 12 39
r 0.22416 1 0 tcp 1040 ------- 0 1.0 0.0 11 36
+ 0.22416 0 1 ack 40 ------- 0 0.0 1.0 11 64
- 0.22416 0 1 ack 40 ------- 0 0.0 1.0 11 64
r 0.22416 1 2 tcp 1040 ------- 0 1.1 2.0 11 38
+ 0.22416 2 1 ack 40 ------- 0 2.0 1.1 11 65
- 0.22416 2 1 ack 40 ------- 0 2.0 1.1 11 65
r 0.22416 0 1 ack 40 ------- 0 0.0 1.0 10 58
+ 0.22416 1 0 tcp 1040 ------- 0 1.0 0.0 21 66
+ 0.22416 1 0 tcp 1040 ------- 0 1.0 0.0 22 67
r 0.22416 2 1 ack 40 ------- 0 2.0 1.1 10 59
+ 0.22416 1 2 tcp 1040 ------- 0 1.1 2.0 21 68
+ 0.22416 1 2 tcp 1040 ------- 0 1.1 2.0 22 69
- 0.22448 1 0 tcp 1040 ------- 0 1.0 0.0 13 42
- 0.22448 1 2 tcp 1040 ------- 0 1.1 2.0 13 44
r 0.23248 1 0 tcp 1040 ------- 0 1.0 0.0 12 37
+ 0.23248 0 1 ack 40 ------- 0 0.0 1.0 12 70
- 0.23248 0 1 ack 40 ------- 0 0.0 1.0 12 70
r 0.23248 1 2 tcp 1040 ------- 0 1.1 2.0 12 39
+ 0.23248 2 1 ack 40 ------- 0 2.0 1.1 12 71
- 0.23248 2 1 ack 40 ------- 0 2.0 1.1 12 71
r 0.23248 0 1 ack 40 ------- 0 0.0 1.0 11 64
+ 0.23248 1 0 tcp 1040 ------- 0 1.0 0.0 23 72
+ 0.23248 1 0 tcp 1040 ------- 0 1.0 0.0 24 73
r 0.23248 2 1 ack 40 ------- 0 2.0 1.1 11 65
+ 0.23248 1 2 tcp 1040 ------- 0 1.1 2.0 23 74
+ 0.23248 1 2 tcp 1040 ------- 0 1.1 2.0 24 75
- 0.2328 1 0 tcp 1040 ------- 0 1.0 0.0 14 43
- 0.2328 1 2 tcp 1040 ------- 0 1.1 2.0 14 45
r 0.2408 1 0 tcp 1040 ------- 0 1.0 0.0 13 42
+ 0.2408 0 1 ack 40 ------- 0 0.0 1.0 13 76
- 0.2408 0 1 ack 40 ------- 0 0.0 1.0 13 76
r 0.2408 1 2 tcp 1040 ------- 0 1.1 2.0 13 44
+ 0.2408 2 1 ack 40 ------- 0 2.0 1.1 13 77
- 0.2408 2 1 ack 40 ------- 0 2.0 1.1 13 77
r 0.2408 0 1 ack 40 ------- 0 0.0 1.0 12 70
+ 0.2408 1 0 tcp 1040 ------- 0 1.0 0.0 25 78
+ 0.2408 1 0 tcp 1040 ------- 0 1.0 0.0 26 79
r 0.2408 2 1 ack 40 ------- 0 2.0 1.1 12 71
+ 0.2408 1 2 tcp 1040 ------- 0 1.1 2.0 25 80
+ 0.2408 1 2 tcp 1040 ------- 0 1.1 2.0 26 81
- 0.24112 1 0 tcp 1040 ------- 0 1.0 0.0 15 48
- 0.24112 1 2 tcp 1040 ------- 0 1.1 2.0 15 50
r 0.24912 1 0 tcp 1040 ------- 0 1.0 0.0 14 43
+ 0.24912 0 1 ack 40 ------- 0 0.0 1.0 14 82
- 0.24912 0 1 ack 40 ------- 0 0.0 1.0 14 82
r 0.24912 1 2 tcp 1040 ------- 0 1.1 2.0 14 45
+ 0.24912 2 1 ack 40 ------- 0 2.0 1.1 14 83
- 0.24912 2 1 ack 40 ------- 0 2.0 1.1 14 83
r 0.24912 0 1 ack 40 ------- 0 0.0 1.0 13 76
+ 0.24912 1 0 tcp 1040 ------- 0 1.0 0.0 27 84
+ 0.24912 1 0 tcp 1040 ------- 0 1.0 0.0 28 85
r 0.24912 2 1 ack 40 ------- 0 2.0 1.1 13 77
+ 0.24912 1 2 tcp 1040 ------- 0 1.1 2.0 27 86
+ 0.24912 1 2 tcp 1040 ------- 0 1.1 2.0 28 87
- 0.24944 1 0 tcp 1040 ------- 0 1.0 0.0 16 49
- 0.24944 1 2 tcp 1040 ------- 0 1.1 2.0 16 51
r 0.25744 1 0 tcp 1040 ------- 0 1.0 0.0 15 48
+ 0.25744 0 1 ack 40 ------- 0 0.0 1.0 15 88
- 0.25744 0 1 ack 40 ------- 0 0.0 1.0 15 88
r 0.25744 1 2 tcp 1040 ------- 0 1.1 2.0 15 50
+ 0.25744 2 1 ack 40 ------- 0 2.0 1.1 15 89
- 0.25744 2 1 ack 40 ------- 0 2.0 1.1 15 89
r 0.25744 0 1 ack 40 ------- 0 0.0 1.0 14 82
+ 0.25744 1 0 tcp 1040 ------- 0 1.0 0.0 29 90
+ 0.25744 1 0 tcp 1040 ------- 0 1.0 0.0 30 91
r 0.25744 2 1 ack 40 ------- 0 2.0 1.1 14 83
+ 0.25744 1 2 tcp 1040 ------- 0 1.1 2.0 29 92
+ 0.25744 1 2 tcp 1040 ------- 0 1.1 2.0 30 93
- 0.25776 1 0 tcp 1040 ------- 0 1.0 0.0 17 54
- 0.25776 1 2 tcp 1040 ------- 0 1.1 2.0 17 56
r 0.26576 1 0 tcp 1040 ------- 0 1.0 0.0 16 49
+ 0.26576 0 1 ack 40 ------- 0 0.0 1.0 16 94
- 0.26576 0 1 ack 40 ------- 0 0.0 1.0 16 94
r 0.26576 1 2 tcp 1040 ------- 0 1.1 2.0 16 51
+ 0.26576 2 1 ack 40 ------- 0 2.0 1.1 16 95
- 0.26576 2 1 ack 40 ------- 0 2.0 1.1 16 95
r 0.26576 0 1 ack 40 ------- 0 0.0 1.0 15 88
+ 0.26576 1 0 tcp 1040 ------- 0 1.0 0.0 31 96
+ 0.26576 1 0 tcp 1040 ------- 0 1.0 0.0 32 97
r 0.26576 2 1 ack 40 ------- 0 2.0 1.1 15 89
+ 0.26576 1 2 tcp 1040 ------- 0 1.1 2.0 31 98
+ 0.26576 1 2 tcp 1040 ------- 0 1.1 2.0 32 99
- 0.26608 1 0 tcp 1040 ------- 0 1.0 0.0 18 55
- 0.26608 1 2 tcp 1040 ------- 0 1.1 2.0 18 57
r 0.27408 0 1 ack 40 ------- 0 0.0 1.0 16 94
+ 0.27408 1 0 tcp 1040 ------- 0 1.0 0.0 33 100
+ 0.27408 1 0 tcp 1040 ------- 0 1.0 0.0 34 101
r 0.27408 2 1 ack 40 ------- 0 2.0 1.1 16 95
+ 0.27408 1 2 tcp 1040 ------- 0 1.1 2.0 33 102
+ 0.27408 1 2 tcp 1040 ------- 0 1.1 2.0 34 103
r 0.27408 1 0 tcp 1040 ------- 0 1.0 0.0 17 54
+ 0.27408 0 1 ack 40 ------- 0 0.0 1.0 17 104
- 0.27408 0 1 ack 40 ------- 0 0.0 1.0 17 104
r 0.27408 1 2 tcp 1040 ------- 0 1.1 2.0 17 56
+ 0.27408 2 1 ack 40 ------- 0 2.0 1.1 17 105
- 0.27408 2 1 ack 40 ------- 0 2.0 1.1 17 105
- 0.2744 1 0 tcp 1040 ------- 0 1.0 0.0 19 60
- 0.2744 1 2 tcp 1040 ------- 0 1.1 2.0 19 62
r 0.2824 1 0 tcp 1040 ------- 0 1.0 0.0 18 55
+ 0.2824 0 1 ack 40 ------- 0 0.0 1.0 18 106
- 0.2824 0 1 ack 40 ------- 0 0.0 1.0 18 106
r 0.2824 1 2 tcp 1040 ------- 0 1.1 2.0 18 57
+ 0.2824 2 1 ack 40 ------- 0 2.0 1.1 18 107
- 0.2824 2 1 ack 40 ------- 0 2.0 1.1 18 107
r 0.2824 0 1 ack 40 ------- 0 0.0 1.0 17 104
+ 0.2824 1 0 tcp 1040 ------- 0 1.0 0.0 35 108
+ 0.2824 1 0 tcp 1040 ------- 0 1.0 0.0 36 109
r 0.2824 2 1 ack 40 ------- 0 2.0 1.1 17 105
+ 0.2824 1 2 tcp 1040 ------- 0 1.1 2.0 35 110
+ 0.2824 1 2 tcp 1040 ------- 0 1.1 2.0 36 111
- 0.28272 1 0 tcp 1040 ------- 0 1.0 0.0 20 61
- 0.28272 1 2 tcp 1040 ------- 0 1.1 2.0 20 63
r 0.29072 1 0 tcp 1040 ------- 0 1.0 0.0 19 60
+ 0.29072 0 1 ack 40 ------- 0 0.0 1.0 19 112
- 0.29072 0 1 ack 40 ------- 0 0.0 1.0 19 112
r 0.29072 1 2 tcp 1040 ------- 0 1.1 2.0 19 62
+ 0.29072 2 1 ack 40 ------- 0 2.0 1.1 19 113
- 0.29072 2 1 ack 40 ------- 0 2.0 1.1 19 113
r 0.29072 0 1 ack 40 ------- 0 0.0 1.0 18 106
+ 0.29072 1 0 tcp 1040 ------- 0 1.0 0.0 37 114
+ 0.29072 1 0 tcp 1040 ------- 0 1.0 0.0 38 115
r 0.29072 2 1 ack 40 ------- 0 2.0 1.1 18 107
+ 0.29072 1 2 tcp 1040 ------- 0 1.1 2.0 37 116
+ 0.29072 1 2 tcp 1040 ------- 0 1.1 2.0 38 117
- 0.29104 1 0 tcp 1040 ------- 0 1.0 0.0 21 66
- 0.29104 1 2 tcp 1040 ------- 0 1.1 2.0 21 68
r 0.29904 1 0 tcp 1040 ------- 0 1.0 0.0 20 61
+ 0.29904 0 1 ack 40 ------- 0 0.0 1.0 20 118
- 0.29904 0 1 ack 40 ------- 0 0.0 1.0 20 118
r 0.29904 1 2 tcp 1040 ------- 0 1.1 2.0 20 63
+ 0.29904 2 1 ack 40 ------- 0 2.0 1.1 20 119
- 0.29904 2 1 ack 40 ------- 0 2.0 1.1 20 119
r 0.29904 0 1 ack 40 ------- 0 0.0 1.0 19 112
+ 0.29904 1 0 tcp 1040 ------- 0 1.0 0.0 39 120
r 0.29904 2 1 ack 40 ------- 0 2.0 1.1 19 113
+ 0.29904 1 2 tcp 1040 ------- 0 1.1 2.0 39 121
- 0.29936 1 0 tcp 1040 ------- 0 1.0 0.0 22 67
- 0.29936 1 2 tcp 1040 ------- 0 1.1 2.0 22 69
r 0.30736 1 0 tcp 1040 ------- 0 1.0 0.0 21 66
+ 0.30736 0 1 ack 40 ------- 0 0.0 1.0 21 122
- 0.30736 0 1 ack 40 ------- 0 0.0 1.0 21 122
r 0.30736 1 2 tcp 1040 ------- 0 1.1 2.0 21 68
+ 0.30736 2 1 ack 40 ------- 0 2.0 1.1 21 123
- 0.30736 2 1 ack 40 ------- 0 2.0 1.1 21 123
r 0.30736 0 1 ack 40 ------- 0 0.0 1.0 20 118
+ 0.30736 1 0 tcp 1040 ------- 0 1.0 0.0 40 124
r 0.30736 2 1 ack 40 ------- 0 2.0 1.1 20 119
+ 0.30736 1 2 tcp 1040 ------- 0 1.1 2.0 40 125
- 0.30768 1 0 tcp 1040 ------- 0 1.0 0.0 23 72
- 0.30768 1 2 tcp 1040 ------- 0 1.1 2.0 23 74
r 0.31568 1 0 tcp 1040 ------- 0 1.0 0.0 22 67
+ 0.31568 0 1 ack 40 ------- 0 0.0 1.0 22 126
- 0.31568 0 1 ack 40 ------- 0 0.0 1.0 22 126
r 0.31568 1 2 tcp 1040 ------- 0 1.1 2.0 22 69
+ 0.31568 2 1 ack 40 ------- 0 2.0 1.1 22 127
- 0.31568 2 1 ack 40 ------- 0 2.0 1.1 22 127
r 0.31568 0 1 ack 40 ------- 0 0.0 1.0 21 122
+ 0.31568 1 0 tcp 1040 ------- 0 1.0 0.0 41 128
r 0.31568 2 1 ack 40 ------- 0 2.0 1.1 21 123
+ 0.31568 1 2 tcp 1040 ------- 0 1.1 2.0 41 129
- 0.316 1 0 tcp 1040 ------- 0 1.0 0.0 24 73
- 0.316 1 2 tcp 1040 ------- 0 1.1 2.0 24 75
r 0.324 1 0 tcp 1040 ------- 0 1.0 0.0 23 72
+ 0.324 0 1 ack 40 ------- 0 0.0 1.0 23 130
- 0.324 0 1 ack 40 ------- 0 0.0 1.0 23 130
r 0.324 1 2 tcp 1040 ------- 0 1.1 2.0 23 74
+ 0.324 2 1 ack 40 ------- 0 2.0 1.1 23 131
- 0.324 2 1 ack 40 ------- 0 2.0 1.1 23 131
r 0.324 0 1 ack 40 ------- 0 0.0 1.0 22 126
+ 0.324 1 0 tcp 1040 ------- 0 1.0 0.0 42 132
r 0.324 2 1 ack 40 ------- 0 2.0 1.1 22 127
+ 0.324 1 2 tcp 1040 ------- 0 1.1 2.0 42 133
- 0.32432 1 0 tcp 1040 ------- 0 1.0 0.0 25 78
- 0.32432 1 2 tcp 1040 ------- 0 1.1 2.0 25 80
r 0.33232 1 0 tcp 1040 ------- 0 1.0 0.0 24 73
+ 0.33232 0 1 ack 40 ------- 0 0.0 1.0 24 134
- 0.33232 0 1 ack 40 ------- 0 0.0 1.0 24 134
r 0.33232 1 2 tcp 1040 ------- 0 1.1 2.0 24 75
+ 0.33232 2 1 ack 40 ------- 0 2.0 1.1 24 135
- 0.33232 2 1 ack 40 ------- 0 2.0 1.1 24 135
r 0.33232 0 1 ack 40 ------- 0 0.0 1.0 23 130
+ 0.33232 1 0 tcp 1040 ------- 0 1.0 0.0 43 136
r 0.33232 2 1 ack 40 ------- 0 2.0 1.1 23 131
+ 0.33232 1 2 tcp 1040 ------- 0 1.1 2.0 43 137
- 0.33264 1 0 tcp 1040 ------- 0 1.0 0.0 26 79
- 0.33264 1 2 tcp 1040 ------- 0 1.1 2.0 26 81
r 0.34064 1 0 tcp 1040 ------- 0 1.0 0.0 25 78
+ 0.34064 0 1 ack 40 ------- 0 0.0 1.0 25 138
- 0.34064 0 1 ack 40 ------- 0 0.0 1.0 25 138
r 0.34064 1 2 tcp 1040 ------- 0 1.1 2.0 25 80
+ 0.34064 2 1 ack 40 ------- 0 2.0 1.1 25 139
- 0.34064 2 1 ack 40 ------- 0 2.0 1.1 25 139
r 0.34064 0 1 ack 40 ------- 0 0.0 1.0 24 134
+ 0.34064 1 0 tcp 1040 ------- 0 1.0 0.0 44 140
r 0.34064 2 1 ack 40 ------- 0 2.0 1.1 24 135
+ 0.34064 1 2 tcp 1040 ------- 0 1.1 2.0 44 141
- 0.34096 1 0 tcp 1040 ------- 0 1.0 0.0 27 84
- 0.34096 1 2 tcp 1040 ------- 0 1.1 2.0 27 86
r 0.34896 1 0 tcp 1040 ------- 0 1.0 0.0 26 79
+ 0.34896 0 1 ack 40 ------- 0 0.0 1.0 26 142
- 0.34896 0 1 ack 40 ------- 0 0.0 1.0 26 142
r 0.34896 1 2 tcp 1040 ------- 0 1.1 2.0 26 81
+ 0.34896 2 1 ack 40 ------- 0 2.0 1.1 26 143
- 0.34896 2 1 ack 40 ------- 0 2.0 1.1 26 143
r 0.34896 0 1 ack 40 ------- 0 0.0 1.0 25 138
+ 0.34896 1 0 tcp 1040 ------- 0 1.0 0.0 45 144
r 0.34896 2 1 ack 40 ------- 0 2.0 1.1 25 139
+ 0.34896 1 2 tcp 1040 ------- 0 1.1 2.0 45 145
- 0.34928 1 0 tcp 1040 ------- 0 1.0 0.0 28 85
- 0.34928 1 2 tcp 1040 ------- 0 1.1 2.0 28 87
r 0.35728 1 0 tcp 1040 ------- 0 1.0 0.0 27 84
+ 0.35728 0 1 ack 40 ------- 0 0.0 1.0 27 146
- 0.35728 0 1 ack 40 ------- 0 0.0 1.0 27 146
r 0.35728 1 2 tcp 1040 ------- 0 1.1 2.0 27 86
+ 0.35728 2 1 ack 40 ------- 0 2.0 1.1 27 147
- 0.35728 2 1 ack 40 ------- 0 2.0 1.1 27 147
r 0.35728 0 1 ack 40 ------- 0 0.0 1.0 26 142
+ 0.35728 1 0 tcp 1040 ------- 0 1.0 0.0 46 148
r 0.35728 2 1 ack 40 ------- 0 2.0 1.1 26 143
+ 0.35728 1 2 tcp 1040 ------- 0 1.1 2.0 46 149
- 0.3576 1 0 tcp 1040 ------- 0 1.0 0.0 29 90
- 0.3576 1 2 tcp 1040 ------- 0 1.1 2.0 29 92
r 0.3656 1 0 tcp 1040 ------- 0 1.0 0.0 28 85
+ 0.3656 0 1 ack 40 ------- 0 0.0 1.0 28 150
- 0.3656 0 1 ack 40 ------- 0 0.0 1.0 28 150
r 0.3656 1 2 tcp 1040 ------- 0 1.1 2.0 28 87
+ 0.3656 2 1 ack 40 ------- 0 2.0 1.1 28 151
- 0.3656 2 1 ack 40 ------- 0 2.0 1.1 28 151
r 0.3656 0 1 ack 40 ------- 0 0.0 1.0 27 146
+ 0.3656 1 0 tcp 1040 ------- 0 1.0 0.0 47 152
r 0.3656 2 1 ack 40 ------- 0 2.0 1.1 27 147
+ 0.3656 1 2 tcp 1040 ------- 0 1.1 2.0 47 153
- 0.36592 1 0 tcp 1040 ------- 0 1.0 0.0 30 91
- 0.36592 1 2 tcp 1040 ------- 0 1.1 2.0 30 93
r 0.37392 1 0 tcp 1040 ------- 0 1.0 0.0 29 90
+ 0.37392 0 1 ack 40 ------- 0 0.0 1.0 29 154
- 0.37392 0 1 ack 40 ------- 0 0.0 1.0 29 154
r 0.37392 1 2 tcp 1040 ------- 0 1.1 2.0 29 92
+ 0.37392 2 1 ack 40 ------- 0 2.0 1.1 29 155
- 0.37392 2 1 ack 40 ------- 0 2.0 1.1 29 155
r 0.37392 0 1 ack 40 ------- 0 0.0 1.0 28 150
+ 0.37392 1 0 tcp 1040 ------- 0 1.0 0.0 48 156
r 0.37392 2 1 ack 40 ------- 0 2.0 1.1 28 151
+ 0.37392 1 2 tcp 1040 ------- 0 1.1 2.0 48 157
- 0.37424 1 0 tcp 1040 ------- 0 1.0 0.0 31 96
- 0.37424 1 2 tcp 1040 ------- 0 1.1 2.0 31 98
r 0.38224 1 0 tcp 1040 ------- 0 1.0 0.0 30 91
+ 0.38224 0 1 ack 40 ------- 0 0.0 1.0 30 158
- 0.38224 0 1 ack 40 ------- 0 0.0 1.0 30 158
r 0.38224 1 2 tcp 1040 ------- 0 1.1 2.0 30 93
+ 0.38224 2 1 ack 40 ------- 0 2.0 1.1 30 159
- 0.38224 2 1 ack 40 ------- 0 2.0 1.1 30 159
r 0.38224 0 1 ack 40 ------- 0 0.0 1.0 29 154
+ 0.38224 1 0 tcp 1040 ------- 0 1.0 0.0 49 160
r 0.38224 2 1 ack 40 ------- 0 2.0 1.1 29 155
+ 0.38224 1 2 tcp 1040 ------- 0 1.1 2.0 49 161
- 0.38256 1 0 tcp 1040 ------- 0 1.0 0.0 32 97
- 0.38256 1 2 tcp 1040 ------- 0 1.1 2.0 32 99
r 0.39056 1 0 tcp 1040 ------- 0 1.0 0.0 31 96
+ 0.39056 0 1 ack 40 ------- 0 0.0 1.0 31 162
- 0.39056 0 1 ack 40 ------- 0 0.0 1.0 31 162
r 0.39056 1 2 tcp 1040 ------- 0 1.1 2.0 31 98
+ 0.39056 2 1 ack 40 ------- 0 2.0 1.1 31 163
- 0.39056 2 1 ack 40 ------- 0 2.0 1.1 31 163
r 0.39056 0 1 ack 40 ------- 0 0.0 1.0 30 158
+ 0.39056 1 0 tcp 1040 ------- 0 1.0 0.0 50 164
r 0.39056 2 1 ack 40 ------- 0 2.0 1.1 30 159
+ 0.39056 1 2 tcp 1040 ------- 0 1.1 2.0 50 165
- 0.39088 1 0 tcp 1040 ------- 0 1.0 0.0 33 100
- 0.39088 1 2 tcp 1040 ------- 0 1.1 2.0 33 102
r 0.39888 1 0 tcp 1040 ------- 0 1.0 0.0 32 97
+ 0.39888 0 1 ack 40 ------- 0 0.0 1.0 32 166
- 0.39888 0 1 ack 40 ------- 0 0.0 1.0 32 166
r 0.39888 1 2 tcp 1040 ------- 0 1.1 2.0 32 99
+ 0.39888 2 1 ack 40 ------- 0 2.0 1.1 32 167
- 0.39888 2 1 ack 40 ------- 0 2.0 1.1 32 167
r 0.39888 0 1 ack 40 ------- 0 0.0 1.0 31 162
+ 0.39888 1 0 tcp 1040 ------- 0 1.0 0.0 51 168
r 0.39888 2 1 ack 40 ------- 0 2.0 1.1 31 163
+ 0.39888 1 2 tcp 1040 ------- 0 1.1 2.0 51 169
- 0.3992 1 0 tcp 1040 ------- 0 1.0 0.0 34 101
- 0.3992 1 2 tcp 1040 ------- 0 1.1 2.0 34 103
r 0.4072 1 0 tcp 1040 ------- 0 1.0 0.0 33 100
+ 0.4072 0 1 ack 40 ------- 0 0.0 1.0 33 170
- 0.4072 0 1 ack 40 ------- 0 0.0 1.0 33 170
r 0.4072 1 2 tcp 1040 ------- 0 1.1 2.0 33 102
+ 0.4072 2 1 ack 40 ------- 0 2.0 1.1 33 171
- 0.4072 2 1 ack 40 ------- 0 2.0 1.1 33 171
r 0.4072 0 1 ack 40 ------- 0 0.0 1.0 32 166
+ 0.4072 1 0 tcp 1040 ------- 0 1.0 0.0 52 172
r 0.4072 2 1 ack 40 ------- 0 2.0 1.1 32 167
+ 0.4072 1 2 tcp 1040 ------- 0 1.1 2.0 52 173
- 0.40752 1 0 tcp 1040 ------- 0 1.0 0.0 35 108
- 0.40752 1 2 tcp 1040 ------- 0 1.1 2.0 35 110
r 0.41552 1 0 tcp 1040 ------- 0 1.0 0.0 34 101
+ 0.41552 0 1 ack 40 ------- 0 0.0 1.0 34 174
- 0.41552 0 1 ack 40 ------- 0 0.0 1.0 34 174
r 0.41552 1 2 tcp 1040 ------- 0 1.1 2.0 34 103
+ 0.41552 2 1 ack 40 ------- 0 2.0 1.1 34 175
- 0.41552 2 1 ack 40 ------- 0 2.0 1.1 34 175
r 0.41552 0 1 ack 40 ------- 0 0.0 1.0 33 170
+ 0.41552 1 0 tcp 1040 ------- 0 1.0 0.0 53 176
r 0.41552 2 1 ack 40 ------- 0 2.0 1.1 33 171
+ 0.41552 1 2 tcp 1040 ------- 0 1.1 2.0 53 177
- 0.41584 1 0 tcp 1040 ------- 0 1.0 0.0 36 109
- 0.41584 1 2 tcp 1040 ------- 0 1.1 2.0 36 111
r 0.42384 1 0 tcp 1040 ------- 0 1.0 0.0 35 108
+ 0.42384 0 1 ack 40 ------- 0 0.0 1.0 35 178
- 0.42384 0 1 ack 40 ------- 0 0.0 1.0 35 178
r 0.42384 1 2 tcp 1040 ------- 0 1.1 2.0 35 110
+ 0.42384 2 1 ack 40 ------- 0 2.0 1.1 35 179
- 0.42384 2 1 ack 40 ------- 0 2.0 1.1 35 179
r 0.42384 0 1 ack 40 ------- 0 0.0 1.0 34 174
+ 0.42384 1 0 tcp 1040 ------- 0 1.0 0.0 54 180
r 0.42384 2 1 ack 40 ------- 0 2.0 1.1 34 175
+ 0.42384 1 2 tcp 1040 ------- 0 1.1 2.0 54 181
- 0.42416 1 0 tcp 1040 ------- 0 1.0 0.0 37 114
- 0.42416 1 2 tcp 1040 ------- 0 1.1 2.0 37 116
r 0.43216 1 0 tcp 1040 ------- 0 1.0 0.0 36 109
+ 0.43216 0 1 ack 40 ------- 0 0.0 1.0 36 182
- 0.43216 0 1 ack 40 ------- 0 0.0 1.0 36 182
r 0.43216 1 2 tcp 1040 ------- 0 1.1 2.0 36 111
+ 0.43216 2 1 ack 40 ------- 0 2.0 1.1 36 183
- 0.43216 2 1 ack 40 ------- 0 2.0 1.1 36 183
r 0.43216 0 1 ack 40 ------- 0 0.0 1.0 35 178
+ 0.43216 1 0 tcp 1040 ------- 0 1.0 0.0 55 184
r 0.43216 2 1 ack 40 ------- 0 2.0 1.1 35 179
+ 0.43216 1 2 tcp 1040 ------- 0 1.1 2.0 55 185
- 0.43248 1 0 tcp 1040 ------- 0 1.0 0.0 38 115
- 0.43248 1 2 tcp 1040 ------- 0 1.1 2.0 38 117
r 0.44048 1 0 tcp 1040 ------- 0 1.0 0.0 37 114
+ 0.44048 0 1 ack 40 ------- 0 0.0 1.0 37 186
- 0.44048 0 1 ack 40 ------- 0 0.0 1.0 37 186
r 0.44048 1 2 tcp 1040 ------- 0 1.1 2.0 37 116
+ 0.44048 2 1 ack 40 ------- 0 2.0 1.1 37 187
- 0.44048 2 1 ack 40 ------- 0 2.0 1.1 37 187
r 0.44048 0 1 ack 40 ------- 0 0.0 1.0 36 182
+ 0.44048 1 0 tcp 1040 ------- 0 1.0 0.0 56 188
r 0.44048 2 1 ack 40 ------- 0 2.0 1.1 36 183
+ 0.44048 1 2 tcp 1040 ------- 0 1.1 2.0 56 189
- 0.4408 1 0 tcp 1040 ------- 0 1.0 0.0 39 120
- 0.4408 1 2 tcp 1040 ------- 0 1.1 2.0 39 121
r 0.4488 1 0 tcp 1040 ------- 0 1.0 0.0 38 115
+ 0.4488 0 1 ack 40 ------- 0 0.0 1.0 38 190
- 0.4488 0 1 ack 40 ------- 0 0.0 1.0 38 190
r 0.4488 1 2 tcp 1040 ------- 0 1.1 2.0 38 117
+ 0.4488 2 1 ack 40 ------- 0 2.0 1.1 38 191
- 0.4488 2 1 ack 40 ------- 0 2.0 1.1 38 191
r 0.4488 0 1 ack 40 ------- 0 0.0 1.0 37 186
+ 0.4488 1 0 tcp 1040 ------- 0 1.0 0.0 57 192
r 0.4488 2 1 ack 40 ------- 0 2.0 1.1 37 187
+ 0.4488 1 2 tcp 1040 ------- 0 1.1 2.0 57 193
- 0.44912 1 0 tcp 1040 ------- 0 1.0 0.0 40 124
- 0.44912 1 2 tcp 1040 ------- 0 1.1 2.0 40 125
r 0.45712 1 0 tcp 1040 ------- 0 1.0 0.0 39 120
+ 0.45712 0 1 ack 40 ------- 0 0.0 1.0 39 194
- 0.45712 0 1 ack 40 ------- 0 0.0 1.0 39 194
r 0.45712 1 2 tcp 1040 ------- 0 1.1 2.0 39 121
+ 0.45712 2 1 ack 40 ------- 0 2.0 1.1 39 195
- 0.45712 2 1 ack 40 ------- 0 2.0 1.1 39 195
r 0.45712 0 1 ack 40 ------- 0 0.0 1.0 38 190
+ 0.45712 1 0 tcp 1040 ------- 0 1.0 0.0 58 196
r 0.45712 2 1 ack 40 ------- 0 2.0 1.1 38 191
+ 0.45712 1 2 tcp 1040 ------- 0 1.1 2.0 58 197
- 0.45744 1 0 tcp 1040 ------- 0 1.0 0.0 41 128
- 0.45744 1 2 tcp 1040 ------- 0 1.1 2.0 41 129
r 0.46544 1 0 tcp 1040 ------- 0 1.0 0.0 40 124
+ 0.46544 0 1 ack 40 ------- 0 0.0 1.0 40 198
- 0.46544 0 1 ack 40 ------- 0 0.0 1.0 40 198
r 0.46544 1 2 tcp 1040 ------- 0 1.1 2.0 40 125
+ 0.46544 2 1 ack 40 ------- 0 2.0 1.1 40 199
- 0.46544 2 1 ack 40 ------- 0 2.0 1.1 40 199
r 0.46544 0 1 ack 40 ------- 0 0.0 1.0 39 194
+ 0.46544 1 0 tcp 1040 ------- 0 1.0 0.0 59 200
r 0.46544 2 1 ack 40 ------- 0 2.0 1.1 39 195
+ 0.46544 1 2 tcp 1040 ------- 0 1.1 2.0 59 201
- 0.46576 1 0 tcp 1040 ------- 0 1.0 0.0 42 132
- 0.46576 1 2 tcp 1040 ------- 0 1.1 2.0 42 133
r 0.47376 1 0 tcp 1040 ------- 0 1.0 0.0 41 128
+ 0.47376 0 1 ack 40 ------- 0 0.0 1.0 41 202
- 0.47376 0 1 ack 40 ------- 0 0.0 1.0 41 202
r 0.47376 1 2 tcp 1040 ------- 0 1.1 2.0 41 129
+ 0.47376 2 1 ack 40 ------- 0 2.0 1.1 41 203
- 0.47376 2 1 ack 40 ------- 0 2.0 1.1 41 203
r 0.47376 0 1 ack 40 ------- 0 0.0 1.0 40 198
+ 0.47376 1 0 tcp 1040 ------- 0 1.0 0.0 60 204
r 0.47376 2 1 ack 40 ------- 0 2.0 1.1 40 199
+ 0.47376 1 2 tcp 1040 ------- 0 1.1 2.0 60 205
- 0.47408 1 0 tcp 1040 ------- 0 1.0 0.0 43 136
- 0.47408 1 2 tcp 1040 ------- 0 1.1 2.0 43 137
r 0.48208 1 0 tcp 1040 ------- 0 1.0 0.0 42 132
+ 0.48208 0 1 ack 40 ------- 0 0.0 1.0 42 206
- 0.48208 0 1 ack 40 ------- 0 0.0 1.0 42 206
r 0.48208 1 2 tcp 1040 ------- 0 1.1 2.0 42 133
+ 0.48208 2 1 ack 40 ------- 0 2.0 1.1 42 207
- 0.48208 2 1 ack 40 ------- 0 2.0 1.1 42 207
r 0.48208 0 1 ack 40 ------- 0 0.0 1.0 41 202
+ 0.48208 1 0 tcp 1040 ------- 0 1.0 0.0 61 208
r 0.48208 2 1 ack 40 ------- 0 2.0 1.1 41 203
+ 0.48208 1 2 tcp 1040 ------- 0 1.1 2.0 61 209
- 0.4824 1 0 tcp 1040 ------- 0 1.0 0.0 44 140
- 0.4824 1 2 tcp 1040 ------- 0 1.1 2.0 44 141
r 0.4904 1 0 tcp 1040 ------- 0 1.0 0.0 43 136
+ 0.4904 0 1 ack 40 ------- 0 0.0 1.0 43 210
- 0.4904 0 1 ack 40 ------- 0 0.0 1.0 43 210
r 0.4904 1 2 tcp 1040 ------- 0 1.1 2.0 43 137
+ 0.4904 2 1 ack 40 ------- 0 2.0 1.1 43 211
- 0.4904 2 1 ack 40 ------- 0 2.0 1.1 43 211
r 0.4904 0 1 ack 40 ------- 0 0.0 1.0 42 206
+ 0.4904 1 0 tcp 1040 ------- 0 1.0 0.0 62 212
r 0.4904 2 1 ack 40 ------- 0 2.0 1.1 42 207
+ 0.4904 1 2 tcp 1040 ------- 0 1.1 2.0 62 213
- 0.49072 1 0 tcp 1040 ------- 0 1.0 0.0 45 144
- 0.49072 1 2 tcp 1040 ------- 0 1.1 2.0 45 145
r 0.49872 1 0 tcp 1040 ------- 0 1.0 0.0 44 140
+ 0.49872 0 1 ack 40 ------- 0 0.0 1.0 44 214
- 0.49872 0 1 ack 40 ------- 0 0.0 1.0 44 214
r 0.49872 1 2 tcp 1040 ------- 0 1.1 2.0 44 141
+ 0.49872 2 1 ack 40 ------- 0 2.0 1.1 44 215
- 0.49872 2 1 ack 40 ------- 0 2.0 1.1 44 215
r 0.49872 0 1 ack 40 ------- 0 0.0 1.0 43 210
+ 0.49872 1 0 tcp 1040 ------- 0 1.0 0.0 63 216
r 0.49872 2 1 ack 40 ------- 0 2.0 1.1 43 211
+ 0.49872 1 2 tcp 1040 ------- 0 1.1 2.0 63 217
- 0.49904 1 0 tcp 1040 ------- 0 1.0 0.0 46 148
- 0.49904 1 2 tcp 1040 ------- 0 1.1 2.0 46 149
r 0.50704 1 0 tcp 1040 ------- 0 1.0 0.0 45 144
+ 0.50704 0 1 ack 40 ------- 0 0.0 1.0 45 218
- 0.50704 0 1 ack 40 ------- 0 0.0 1.0 45 218
r 0.50704 1 2 tcp 1040 ------- 0 1.1 2.0 45 145
+ 0.50704 2 1 ack 40 ------- 0 2.0 1.1 45 219
- 0.50704 2 1 ack 40 ------- 0 2.0 1.1 45 219
r 0.50704 0 1 ack 40 ------- 0 0.0 1.0 44 214
+ 0.50704 1 0 tcp 1040 ------- 0 1.0 0.0 64 220
r 0.50704 2 1 ack 40 ------- 0 2.0 1.1 44 215
+ 0.50704 1 2 tcp 1040 ------- 0 1.1 2.0 64 221
- 0.50736 1 0 tcp 1040 ------- 0 1.0 0.0 47 152
- 0.50736 1 2 tcp 1040 ------- 0 1.1 2.0 47 153
r 0.51536 0 1 ack 40 ------- 0 0.0 1.0 45 218
+ 0.51536 1 0 tcp 1040 ------- 0 1.0 0.0 65 222
r 0.51536 2 1 ack 40 ------- 0 2.0 1.1 45 219
+ 0.51536 1 2 tcp 1040 ------- 0 1.1 2.0 65 223
r 0.51536 1 0 tcp 1040 ------- 0 1.0 0.0 46 148
+ 0.51536 0 1 ack 40 ------- 0 0.0 1.0 46 224
- 0.51536 0 1 ack 40 ------- 0 0.0 1.0 46 224
r 0.51536 1 2 tcp 1040 ------- 0 1.1 2.0 46 149
+ 0.51536 2 1 ack 40 ------- 0 2.0 1.1 46 225
- 0.51536 2 1 ack 40 ------- 0 2.0 1.1 46 225
- 0.51568 1 0 tcp 1040 ------- 0 1.0 0.0 48 156
- 0.51568 1 2 tcp 1040 ------- 0 1.1 2.0 48 157
r 0.52368 1 0 tcp 1040 ------- 0 1.0 0.0 47 152
+ 0.52368 0 1 ack 40 ------- 0 0.0 1.0 47 226
- 0.52368 0 1 ack 40 ------- 0 0.0 1.0 47 226
r 0.52368 1 2 tcp 1040 ------- 0 1.1 2.0 47 153
+ 0.52368 2 1 ack 40 ------- 0 2.0 1.1 47 227
- 0.52368 2 1 ack 40 ------- 0 2.0 1.1 47 227
r 0.52368 0 1 ack 40 ------- 0 0.0 1.0 46 224
+ 0.52368 1 0 tcp 1040 ------- 0 1.0 0.0 66 228
r 0.52368 2 1 ack 40 ------- 0 2.0 1.1 46 225
+ 0.52368 1 2 tcp 1040 ------- 0 1.1 2.0 66 229
- 0.524 1 0 tcp 1040 ------- 0 1.0 0.0 49 160
- 0.524 1 2 tcp 1040 ------- 0 1.1 2.0 49 161
r 0.532 1 0 tcp 1040 ------- 0 1.0 0.0 48 156
+ 0.532 0 1 ack 40 ------- 0 0.0 1.0 48 230
- 0.532 0 1 ack 40 ------- 0 0.0 1.0 48 230
r 0.532 1 2 tcp 1040 ------- 0 1.1 2.0 48 157
+ 0.532 2 1 ack 40 ------- 0 2.0 1.1 48 231
- 0.532 2 1 ack 40 ------- 0 2.0 1.1 48 231
r 0.532 0 1 ack 40 ------- 0 0.0 1.0 47 226
+ 0.532 1 0 tcp 1040 ------- 0 1.0 0.0 67 232
r 0.532 2 1 ack 40 ------- 0 2.0 1.1 47 227
+ 0.532 1 2 tcp 1040 ------- 0 1.1 2.0 67 233
- 0.53232 1 0 tcp 1040 ------- 0 1.0 0.0 50 164
- 0.53232 1 2 tcp 1040 ------- 0 1.1 2.0 50 165
r 0.54032 1 0 tcp 1040 ------- 0 1.0 0.0 49 160
+ 0.54032 0 1 ack 40 ------- 0 0.0 1.0 49 234
- 0.54032 0 1 ack 40 ------- 0 0.0 1.0 49 234
r 0.54032 1 2 tcp 1040 ------- 0 1.1 2.0 49 161
+ 0.54032 2 1 ack 40 ------- 0 2.0 1.1 49 235
- 0.54032 2 1 ack 40 ------- 0 2.0 1.1 49 235
r 0.54032 0 1 ack 40 ------- 0 0.0 1.0 48 230
+ 0.54032 1 0 tcp 1040 ------- 0 1.0 0.0 68 236
r 0.54032 2 1 ack 40 ------- 0 2.0 1.1 48 231
+ 0.54032 1 2 tcp 1040 ------- 0 1.1 2.0 68 237
- 0.54064 1 0 tcp 1040 ------- 0 1.0 0.0 51 168
- 0.54064 1 2 tcp 1040 ------- 0 1.1 2.0 51 169
r 0.54864 1 0 tcp 1040 ------- 0 1.0 0.0 50 164
+ 0.54864 0 1 ack 40 ------- 0 0.0 1.0 50 238
- 0.54864 0 1 ack 40 ------- 0 0.0 1.0 50 238
r 0.54864 1 2 tcp 1040 ------- 0 1.1 2.0 50 165
+ 0.54864 2 1 ack 40 ------- 0 2.0 1.1 50 239
- 0.54864 2 1 ack 40 ------- 0 2.0 1.1 50 239
r 0.54864 0 1 ack 40 ------- 0 0.0 1.0 49 234
+ 0.54864 1 0 tcp 1040 ------- 0 1.0 0.0 69 240
r 0.54864 2 1 ack 40 ------- 0 2.0 1.1 49 235
+ 0.54864 1 2 tcp 1040 ------- 0 1.1 2.0 69 241