+ 0.1 0 2 tcp 40 ------- 1 0.0 3.0 0 0
- 0.1 0 2 tcp 40 ------- 1 0.0 3.0 0 0
+ 0.1 1 2 cbr 210 ------- 2 1.0 3.1 0 1
- 0.1 1 2 cbr 210 ------- 2 1.0 3.1 0 1
r 0.10368 1 2 cbr 210 ------- 2 1.0 3.1 0 1
+ 0.10368 2 3 cbr 210 ------- 2 1.0 3.1 0 1
- 0.10368 2 3 cbr 210 ------- 2 1.0 3.1 0 1
+ 0.10375 1 2 cbr 210 ------- 2 1.0 3.1 1 2
- 0.10375 1 2 cbr 210 ------- 2 1.0 3.1 1 2
r 0.10743 1 2 cbr 210 ------- 2 1.0 3.1 1 2
+ 0.10743 2 3 cbr 210 ------- 2 1.0 3.1 1 2
- 0.10743 2 3 cbr 210 ------- 2 1.0 3.1 1 2
+ 0.1075 1 2 cbr 210 ------- 2 1.0 3.1 2 3
- 0.1075 1 2 cbr 210 ------- 2 1.0 3.1 2 3
r 0.10864 0 2 tcp 40 ------- 1 0.0 3.0 0 0
+ 0.10864 2 3 tcp 40 ------- 1 0.0 3.0 0 0
- 0.10911 2 3 tcp 40 ------- 1 0.0 3.0 0 0
r 0.11118 1 2 cbr 210 ------- 2 1.0 3.1 2 3
+ 0.11118 2 3 cbr 210 ------- 2 1.0 3.1 2 3
- 0.11118 2 3 cbr 210 ------- 2 1.0 3.1 2 3
+ 0.11125 1 2 cbr 210 ------- 2 1.0 3.1 3 4
- 0.11125 1 2 cbr 210 ------- 2 1.0 3.1 3 4
r 0.11336 2 3 cbr 210 ------- 2 1.0 3.1 0 1
r 0.11493 1 2 cbr 210 ------- 2 1.0 3.1 3 4
+ 0.11493 2 3 cbr 210 ------- 2 1.0 3.1 3 4
- 0.11493 2 3 cbr 210 ------- 2 1.0 3.1 3 4
+ 0.115 1 2 cbr 210 ------- 2 1.0 3.1 4 5
- 0.115 1 2 cbr 210 ------- 2 1.0 3.1 4 5
r 0.11711 2 3 cbr 210 ------- 2 1.0 3.1 1 2
r 0.11743 2 3 tcp 40 ------- 1 0.0 3.0 0 0
+ 0.11743 3 2 ack 40 ------- 1 3.0 0.0 0 6
- 0.11743 3 2 ack 40 ------- 1 3.0 0.0 0 6
r 0.11868 1 2 cbr 210 ------- 2 1.0 3.1 4 5
+ 0.11868 2 3 cbr 210 ------- 2 1.0 3.1 4 5
- 0.11868 2 3 cbr 210 ------- 2 1.0 3.1 4 5
+ 0.11875 1 2 cbr 210 ------- 2 1.0 3.1 5 7
- 0.11875 1 2 cbr 210 ------- 2 1.0 3.1 5 7
r 0.12086 2 3 cbr 210 ------- 2 1.0 3.1 2 3
r 0.12243 1 2 cbr 210 ------- 2 1.0 3.1 5 7
+ 0.12243 2 3 cbr 210 ------- 2 1.0 3.1 5 7
- 0.12243 2 3 cbr 210 ------- 2 1.0 3.1 5 7
+ 0.1225 1 2 cbr 210 ------- 2 1.0 3.1 6 8
- 0.1225 1 2 cbr 210 ------- 2 1.0 3.1 6 8
r 0.12461 2 3 cbr 210 ------- 2 1.0 3.1 3 4
r 0.12575 3 2 ack 40 ------- 1 3.0 0.0 0 6
+ 0.12575 2 0 ack 40 ------- 1 3.0 0.0 0 6
- 0.12575 2 0 ack 40 ------- 1 3.0 0.0 0 6
r 0.12618 1 2 cbr 210 ------- 2 1.0 3.1 6 8
+ 0.12618 2 3 cbr 210 ------- 2 1.0 3.1 6 8
- 0.12618 2 3 cbr 210 ------- 2 1.0 3.1 6 8
+ 0.12625 1 2 cbr 210 ------- 2 1.0 3.1 7 9
- 0.12625 1 2 cbr 210 ------- 2 1.0 3.1 7 9
r 0.12836 2 3 cbr 210 ------- 2 1.0 3.1 4 5
r 0.12993 1 2 cbr 210 ------- 2 1.0 3.1 7 9
+ 0.12993 2 3 cbr 210 ------- 2 1.0 3.1 7 9
- 0.12993 2 3 cbr 210 ------- 2 1.0 3.1 7 9
+ 0.13 1 2 cbr 210 ------- 2 1.0 3.1 8 10
- 0.13 1 2 cbr 210 ------- 2 1.0 3.1 8 10
r 0.13211 2 3 cbr 210 ------- 2 1.0 3.1 5 7
r 0.13368 1 2 cbr 210 ------- 2 1.0 3.1 8 10
+ 0.13368 2 3 cbr 210 ------- 2 1.0 3.1 8 10
- 0.13368 2 3 cbr 210 ------- 2 1.0 3.1 8 10
+ 0.13375 1 2 cbr 210 ------- 2 1.0 3.1 9 11
- 0.13375 1 2 cbr 210 ------- 2 1.0 3.1 9 11
r 0.13439 2 0 ack 40 ------- 1 3.0 0.0 0 6
+ 0.13439 0 2 tcp 1040 ------- 1 0.0 3.0 1 12
- 0.13439 0 2 tcp 1040 ------- 1 0.0 3.0 1 12
+ 0.13439 0 2 tcp 1040 ------- 1 0.0 3.0 2 13
r 0.13586 2 3 cbr 210 ------- 2 1.0 3.1 6 8
r 0.13743 1 2 cbr 210 ------- 2 1.0 3.1 9 11
+ 0.13743 2 3 cbr 210 ------- 2 1.0 3.1 9 11
- 0.13743 2 3 cbr 210 ------- 2 1.0 3.1 9 11
+ 0.1375 1 2 cbr 210 ------- 2 1.0 3.1 10 14
- 0.1375 1 2 cbr 210 ------- 2 1.0 3.1 10 14
r 0.13961 2 3 cbr 210 ------- 2 1.0 3.1 7 9
r 0.14118 1 2 cbr 210 ------- 2 1.0 3.1 10 14
+ 0.14118 2 3 cbr 210 ------- 2 1.0 3.1 10 14
- 0.14118 2 3 cbr 210 ------- 2 1.0 3.1 10 14
+ 0.14125 1 2 cbr 210 ------- 2 1.0 3.1 11 15
- 0.14125 1 2 cbr 210 ------- 2 1.0 3.1 11 15
r 0.14336 2 3 cbr 210 ------- 2 1.0 3.1 8 10
r 0.14493 1 2 cbr 210 ------- 2 1.0 3.1 11 15
+ 0.14493 2 3 cbr 210 ------- 2 1.0 3.1 11 15
- 0.14493 2 3 cbr 210 ------- 2 1.0 3.1 11 15
+ 0.145 1 2 cbr 210 ------- 2 1.0 3.1 12 16
- 0.145 1 2 cbr 210 ------- 2 1.0 3.1 12 16
r 0.14711 2 3 cbr 210 ------- 2 1.0 3.1 9 11
r 0.14868 1 2 cbr 210 ------- 2 1.0 3.1 12 16
+ 0.14868 2 3 cbr 210 ------- 2 1.0 3.1 12 16
- 0.14868 2 3 cbr 210 ------- 2 1.0 3.1 12 16
+ 0.14875 1 2 cbr 210 ------- 2 1.0 3.1 13 17
- 0.14875 1 2 cbr 210 ------- 2 1.0 3.1 13 17
r 0.15086 2 3 cbr 210 ------- 2 1.0 3.1 10 14
- 0.15103 0 2 tcp 1040 ------- 1 0.0 3.0 2 13
r 0.15243 1 2 cbr 210 ------- 2 1.0 3.1 13 17
+ 0.15243 2 3 cbr 210 ------- 2 1.0 3.1 13 17
- 0.15243 2 3 cbr 210 ------- 2 1.0 3.1 13 17
+ 0.1525 1 2 cbr 210 ------- 2 1.0 3.1 14 18
- 0.1525 1 2 cbr 210 ------- 2 1.0 3.1 14 18
r 0.15461 2 3 cbr 210 ------- 2 1.0 3.1 11 15
r 0.15618 1 2 cbr 210 ------- 2 1.0 3.1 14 18
+ 0.15618 2 3 cbr 210 ------- 2 1.0 3.1 14 18
- 0.15618 2 3 cbr 210 ------- 2 1.0 3.1 14 18
+ 0.15625 1 2 cbr 210 ------- 2 1.0 3.1 15 19
- 0.15625 1 2 cbr 210 ------- 2 1.0 3.1 15 19
r 0.15836 2 3 cbr 210 ------- 2 1.0 3.1 12 16
r 0.15903 0 2 tcp 1040 ------- 1 0.0 3.0 1 12
+ 0.15903 2 3 tcp 1040 ------- 1 0.0 3.0 1 12
- 0.15903 2 3 tcp 1040 ------- 1 0.0 3.0 1 12
r 0.15993 1 2 cbr 210 ------- 2 1.0 3.1 15 19
+ 0.15993 2 3 cbr 210 ------- 2 1.0 3.1 15 19
+ 0.16 1 2 cbr 210 ------- 2 1.0 3.1 16 20
- 0.16 1 2 cbr 210 ------- 2 1.0 3.1 16 20
r 0.16211 2 3 cbr 210 ------- 2 1.0 3.1 13 17
r 0.16368 1 2 cbr 210 ------- 2 1.0 3.1 16 20
+ 0.16368 2 3 cbr 210 ------- 2 1.0 3.1 16 20
+ 0.16375 1 2 cbr 210 ------- 2 1.0 3.1 17 21
- 0.16375 1 2 cbr 210 ------- 2 1.0 3.1 17 21
r 0.16586 2 3 cbr 210 ------- 2 1.0 3.1 14 18
- 0.16735 2 3 cbr 210 ------- 2 1.0 3.1 15 19
r 0.16743 1 2 cbr 210 ------- 2 1.0 3.1 17 21
+ 0.16743 2 3 cbr 210 ------- 2 1.0 3.1 17 21
+ 0.1675 1 2 cbr 210 ------- 2 1.0 3.1 18 22
- 0.1675 1 2 cbr 210 ------- 2 1.0 3.1 18 22
- 0.16903 2 3 cbr 210 ------- 2 1.0 3.1 16 20
- 0.17071 2 3 cbr 210 ------- 2 1.0 3.1 17 21
r 0.17118 1 2 cbr 210 ------- 2 1.0 3.1 18 22
+ 0.17118 2 3 cbr 210 ------- 2 1.0 3.1 18 22
+ 0.17125 1 2 cbr 210 ------- 2 1.0 3.1 19 23
- 0.17125 1 2 cbr 210 ------- 2 1.0 3.1 19 23
- 0.17239 2 3 cbr 210 ------- 2 1.0 3.1 18 22
r 0.17493 1 2 cbr 210 ------- 2 1.0 3.1 19 23
+ 0.17493 2 3 cbr 210 ------- 2 1.0 3.1 19 23
- 0.17493 2 3 cbr 210 ------- 2 1.0 3.1 19 23
+ 0.175 1 2 cbr 210 ------- 2 1.0 3.1 20 24
- 0.175 1 2 cbr 210 ------- 2 1.0 3.1 20 24
r 0.17535 2 3 tcp 1040 ------- 1 0.0 3.0 1 12
+ 0.17535 3 2 ack 40 ------- 1 3.0 0.0 1 25
- 0.17535 3 2 ack 40 ------- 1 3.0 0.0 1 25
r 0.17567 0 2 tcp 1040 ------- 1 0.0 3.0 2 13
+ 0.17567 2 3 tcp 1040 ------- 1 0.0 3.0 2 13
- 0.17661 2 3 tcp 1040 ------- 1 0.0 3.0 2 13
r 0.17703 2 3 cbr 210 ------- 2 1.0 3.1 15 19
r 0.17868 1 2 cbr 210 ------- 2 1.0 3.1 20 24
+ 0.17868 2 3 cbr 210 ------- 2 1.0 3.1 20 24
r 0.17871 2 3 cbr 210 ------- 2 1.0 3.1 16 20
+ 0.17875 1 2 cbr 210 ------- 2 1.0 3.1 21 26
- 0.17875 1 2 cbr 210 ------- 2 1.0 3.1 21 26
r 0.18039 2 3 cbr 210 ------- 2 1.0 3.1 17 21
r 0.18207 2 3 cbr 210 ------- 2 1.0 3.1 18 22
r 0.18243 1 2 cbr 210 ------- 2 1.0 3.1 21 26
+ 0.18243 2 3 cbr 210 ------- 2 1.0 3.1 21 26
+ 0.1825 1 2 cbr 210 ------- 2 1.0 3.1 22 27
- 0.1825 1 2 cbr 210 ------- 2 1.0 3.1 22 27
r 0.18367 3 2 ack 40 ------- 1 3.0 0.0 1 25
+ 0.18367 2 0 ack 40 ------- 1 3.0 0.0 1 25
- 0.18367 2 0 ack 40 ------- 1 3.0 0.0 1 25
r 0.18461 2 3 cbr 210 ------- 2 1.0 3.1 19 23
- 0.18493 2 3 cbr 210 ------- 2 1.0 3.1 20 24
r 0.18618 1 2 cbr 210 ------- 2 1.0 3.1 22 27
+ 0.18618 2 3 cbr 210 ------- 2 1.0 3.1 22 27
+ 0.18625 1 2 cbr 210 ------- 2 1.0 3.1 23 28
- 0.18625 1 2 cbr 210 ------- 2 1.0 3.1 23 28
- 0.18661 2 3 cbr 210 ------- 2 1.0 3.1 21 26
- 0.18829 2 3 cbr 210 ------- 2 1.0 3.1 22 27
r 0.18993 1 2 cbr 210 ------- 2 1.0 3.1 23 28
+ 0.18993 2 3 cbr 210 ------- 2 1.0 3.1 23 28
- 0.18997 2 3 cbr 210 ------- 2 1.0 3.1 23 28
+ 0.19 1 2 cbr 210 ------- 2 1.0 3.1 24 29
- 0.19 1 2 cbr 210 ------- 2 1.0 3.1 24 29
r 0.19231 2 0 ack 40 ------- 1 3.0 0.0 1 25
+ 0.19231 0 2 tcp 1040 ------- 1 0.0 3.0 3 30
- 0.19231 0 2 tcp 1040 ------- 1 0.0 3.0 3 30
+ 0.19231 0 2 tcp 1040 ------- 1 0.0 3.0 4 31
r 0.19293 2 3 tcp 1040 ------- 1 0.0 3.0 2 13
+ 0.19293 3 2 ack 40 ------- 1 3.0 0.0 2 32
- 0.19293 3 2 ack 40 ------- 1 3.0 0.0 2 32
r 0.19368 1 2 cbr 210 ------- 2 1.0 3.1 24 29
+ 0.19368 2 3 cbr 210 ------- 2 1.0 3.1 24 29
- 0.19368 2 3 cbr 210 ------- 2 1.0 3.1 24 29
+ 0.19375 1 2 cbr 210 ------- 2 1.0 3.1 25 33
- 0.19375 1 2 cbr 210 ------- 2 1.0 3.1 25 33
r 0.19461 2 3 cbr 210 ------- 2 1.0 3.1 20 24
r 0.19629 2 3 cbr 210 ------- 2 1.0 3.1 21 26
r 0.19743 1 2 cbr 210 ------- 2 1.0 3.1 25 33
+ 0.19743 2 3 cbr 210 ------- 2 1.0 3.1 25 33
- 0.19743 2 3 cbr 210 ------- 2 1.0 3.1 25 33
+ 0.1975 1 2 cbr 210 ------- 2 1.0 3.1 26 34
- 0.1975 1 2 cbr 210 ------- 2 1.0 3.1 26 34
r 0.19797 2 3 cbr 210 ------- 2 1.0 3.1 22 27
r 0.19965 2 3 cbr 210 ------- 2 1.0 3.1 23 28
r 0.20118 1 2 cbr 210 ------- 2 1.0 3.1 26 34
+ 0.20118 2 3 cbr 210 ------- 2 1.0 3.1 26 34
- 0.20118 2 3 cbr 210 ------- 2 1.0 3.1 26 34
r 0.20125 3 2 ack 40 ------- 1 3.0 0.0 2 32
+ 0.20125 2 0 ack 40 ------- 1 3.0 0.0 2 32
- 0.20125 2 0 ack 40 ------- 1 3.0 0.0 2 32
+ 0.20125 1 2 cbr 210 ------- 2 1.0 3.1 27 35
- 0.20125 1 2 cbr 210 ------- 2 1.0 3.1 27 35
r 0.20336 2 3 cbr 210 ------- 2 1.0 3.1 24 29
r 0.20493 1 2 cbr 210 ------- 2 1.0 3.1 27 35
+ 0.20493 2 3 cbr 210 ------- 2 1.0 3.1 27 35
- 0.20493 2 3 cbr 210 ------- 2 1.0 3.1 27 35
+ 0.205 1 2 cbr 210 ------- 2 1.0 3.1 28 36
- 0.205 1 2 cbr 210 ------- 2 1.0 3.1 28 36
r 0.20711 2 3 cbr 210 ------- 2 1.0 3.1 25 33
r 0.20868 1 2 cbr 210 ------- 2 1.0 3.1 28 36
+ 0.20868 2 3 cbr 210 ------- 2 1.0 3.1 28 36
- 0.20868 2 3 cbr 210 ------- 2 1.0 3.1 28 36
+ 0.20875 1 2 cbr 210 ------- 2 1.0 3.1 29 37
- 0.20875 1 2 cbr 210 ------- 2 1.0 3.1 29 37
- 0.20895 0 2 tcp 1040 ------- 1 0.0 3.0 4 31
r 0.20989 2 0 ack 40 ------- 1 3.0 0.0 2 32
+ 0.20989 0 2 tcp 1040 ------- 1 0.0 3.0 5 38
+ 0.20989 0 2 tcp 1040 ------- 1 0.0 3.0 6 39
r 0.21086 2 3 cbr 210 ------- 2 1.0 3.1 26 34
r 0.21243 1 2 cbr 210 ------- 2 1.0 3.1 29 37
+ 0.21243 2 3 cbr 210 ------- 2 1.0 3.1 29 37
- 0.21243 2 3 cbr 210 ------- 2 1.0 3.1 29 37
+ 0.2125 1 2 cbr 210 ------- 2 1.0 3.1 30 40
- 0.2125 1 2 cbr 210 ------- 2 1.0 3.1 30 40
r 0.21461 2 3 cbr 210 ------- 2 1.0 3.1 27 35
r 0.21618 1 2 cbr 210 ------- 2 1.0 3.1 30 40
+ 0.21618 2 3 cbr 210 ------- 2 1.0 3.1 30 40
- 0.21618 2 3 cbr 210 ------- 2 1.0 3.1 30 40
+ 0.21625 1 2 cbr 210 ------- 2 1.0 3.1 31 41
- 0.21625 1 2 cbr 210 ------- 2 1.0 3.1 31 41
r 0.21695 0 2 tcp 1040 ------- 1 0.0 3.0 3 30
+ 0.21695 2 3 tcp 1040 ------- 1 0.0 3.0 3 30
- 0.21786 2 3 tcp 1040 ------- 1 0.0 3.0 3 30
r 0.21836 2 3 cbr 210 ------- 2 1.0 3.1 28 36
r 0.21993 1 2 cbr 210 ------- 2 1.0 3.1 31 41
+ 0.21993 2 3 cbr 210 ------- 2 1.0 3.1 31 41
+ 0.22 1 2 cbr 210 ------- 2 1.0 3.1 32 42
- 0.22 1 2 cbr 210 ------- 2 1.0 3.1 32 42
r 0.22211 2 3 cbr 210 ------- 2 1.0 3.1 29 37
r 0.22368 1 2 cbr 210 ------- 2 1.0 3.1 32 42
+ 0.22368 2 3 cbr 210 ------- 2 1.0 3.1 32 42
+ 0.22375 1 2 cbr 210 ------- 2 1.0 3.1 33 43
- 0.22375 1 2 cbr 210 ------- 2 1.0 3.1 33 43
- 0.22559 0 2 tcp 1040 ------- 1 0.0 3.0 5 38
r 0.22586 2 3 cbr 210 ------- 2 1.0 3.1 30 40
- 0.22618 2 3 cbr 210 ------- 2 1.0 3.1 31 41
r 0.22743 1 2 cbr 210 ------- 2 1.0 3.1 33 43
+ 0.22743 2 3 cbr 210 ------- 2 1.0 3.1 33 43
+ 0.2275 1 2 cbr 210 ------- 2 1.0 3.1 34 44
- 0.2275 1 2 cbr 210 ------- 2 1.0 3.1 34 44
- 0.22786 2 3 cbr 210 ------- 2 1.0 3.1 32 42
- 0.22954 2 3 cbr 210 ------- 2 1.0 3.1 33 43
r 0.23118 1 2 cbr 210 ------- 2 1.0 3.1 34 44
+ 0.23118 2 3 cbr 210 ------- 2 1.0 3.1 34 44
- 0.23122 2 3 cbr 210 ------- 2 1.0 3.1 34 44
+ 0.23125 1 2 cbr 210 ------- 2 1.0 3.1 35 45
- 0.23125 1 2 cbr 210 ------- 2 1.0 3.1 35 45
r 0.23359 0 2 tcp 1040 ------- 1 0.0 3.0 4 31
+ 0.23359 2 3 tcp 1040 ------- 1 0.0 3.0 4 31
- 0.23359 2 3 tcp 1040 ------- 1 0.0 3.0 4 31
r 0.23418 2 3 tcp 1040 ------- 1 0.0 3.0 3 30
+ 0.23418 3 2 ack 40 ------- 1 3.0 0.0 3 46
- 0.23418 3 2 ack 40 ------- 1 3.0 0.0 3 46
r 0.23493 1 2 cbr 210 ------- 2 1.0 3.1 35 45
+ 0.23493 2 3 cbr 210 ------- 2 1.0 3.1 35 45
+ 0.235 1 2 cbr 210 ------- 2 1.0 3.1 36 47
- 0.235 1 2 cbr 210 ------- 2 1.0 3.1 36 47
r 0.23586 2 3 cbr 210 ------- 2 1.0 3.1 31 41
r 0.23754 2 3 cbr 210 ------- 2 1.0 3.1 32 42
r 0.23868 1 2 cbr 210 ------- 2 1.0 3.1 36 47
+ 0.23868 2 3 cbr 210 ------- 2 1.0 3.1 36 47
+ 0.23875 1 2 cbr 210 ------- 2 1.0 3.1 37 48
- 0.23875 1 2 cbr 210 ------- 2 1.0 3.1 37 48
r 0.23922 2 3 cbr 210 ------- 2 1.0 3.1 33 43
r 0.2409 2 3 cbr 210 ------- 2 1.0 3.1 34 44
- 0.24191 2 3 cbr 210 ------- 2 1.0 3.1 35 45
- 0.24223 0 2 tcp 1040 ------- 1 0.0 3.0 6 39
r 0.24243 1 2 cbr 210 ------- 2 1.0 3.1 37 48
+ 0.24243 2 3 cbr 210 ------- 2 1.0 3.1 37 48
r 0.2425 3 2 ack 40 ------- 1 3.0 0.0 3 46
+ 0.2425 2 0 ack 40 ------- 1 3.0 0.0 3 46
- 0.2425 2 0 ack 40 ------- 1 3.0 0.0 3 46
+ 0.2425 1 2 cbr 210 ------- 2 1.0 3.1 38 49
- 0.2425 1 2 cbr 210 ------- 2 1.0 3.1 38 49
- 0.24359 2 3 cbr 210 ------- 2 1.0 3.1 36 47
- 0.24527 2 3 cbr 210 ------- 2 1.0 3.1 37 48
r 0.24618 1 2 cbr 210 ------- 2 1.0 3.1 38 49
+ 0.24618 2 3 cbr 210 ------- 2 1.0 3.1 38 49
+ 0.24625 1 2 cbr 210 ------- 2 1.0 3.1 39 50
- 0.24625 1 2 cbr 210 ------- 2 1.0 3.1 39 50
- 0.24695 2 3 cbr 210 ------- 2 1.0 3.1 38 49
r 0.24991 2 3 tcp 1040 ------- 1 0.0 3.0 4 31
+ 0.24991 3 2 ack 40 ------- 1 3.0 0.0 4 51
- 0.24991 3 2 ack 40 ------- 1 3.0 0.0 4 51
r 0.24993 1 2 cbr 210 ------- 2 1.0 3.1 39 50
+ 0.24993 2 3 cbr 210 ------- 2 1.0 3.1 39 50
- 0.24993 2 3 cbr 210 ------- 2 1.0 3.1 39 50
+ 0.25 1 2 cbr 210 ------- 2 1.0 3.1 40 52
- 0.25 1 2 cbr 210 ------- 2 1.0 3.1 40 52
r 0.25023 0 2 tcp 1040 ------- 1 0.0 3.0 5 38
+ 0.25023 2 3 tcp 1040 ------- 1 0.0 3.0 5 38
r 0.25114 2 0 ack 40 ------- 1 3.0 0.0 3 46
+ 0.25114 0 2 tcp 1040 ------- 1 0.0 3.0 7 53
+ 0.25114 0 2 tcp 1040 ------- 1 0.0 3.0 8 54
r 0.25159 2 3 cbr 210 ------- 2 1.0 3.1 35 45
- 0.25161 2 3 tcp 1040 ------- 1 0.0 3.0 5 38
r 0.25327 2 3 cbr 210 ------- 2 1.0 3.1 36 47
r 0.25368 1 2 cbr 210 ------- 2 1.0 3.1 40 52
+ 0.25368 2 3 cbr 210 ------- 2 1.0 3.1 40 52
+ 0.25375 1 2 cbr 210 ------- 2 1.0 3.1 41 55
- 0.25375 1 2 cbr 210 ------- 2 1.0 3.1 41 55
r 0.25495 2 3 cbr 210 ------- 2 1.0 3.1 37 48
r 0.25663 2 3 cbr 210 ------- 2 1.0 3.1 38 49
r 0.25743 1 2 cbr 210 ------- 2 1.0 3.1 41 55
+ 0.25743 2 3 cbr 210 ------- 2 1.0 3.1 41 55
+ 0.2575 1 2 cbr 210 ------- 2 1.0 3.1 42 56
- 0.2575 1 2 cbr 210 ------- 2 1.0 3.1 42 56
r 0.25823 3 2 ack 40 ------- 1 3.0 0.0 4 51
+ 0.25823 2 0 ack 40 ------- 1 3.0 0.0 4 51
- 0.25823 2 0 ack 40 ------- 1 3.0 0.0 4 51
- 0.25887 0 2 tcp 1040 ------- 1 0.0 3.0 7 53
r 0.25961 2 3 cbr 210 ------- 2 1.0 3.1 39 50
- 0.25993 2 3 cbr 210 ------- 2 1.0 3.1 40 52
r 0.26118 1 2 cbr 210 ------- 2 1.0 3.1 42 56
+ 0.26118 2 3 cbr 210 ------- 2 1.0 3.1 42 56
+ 0.26125 1 2 cbr 210 ------- 2 1.0 3.1 43 57
- 0.26125 1 2 cbr 210 ------- 2 1.0 3.1 43 57
- 0.26161 2 3 cbr 210 ------- 2 1.0 3.1 41 55
- 0.26329 2 3 cbr 210 ------- 2 1.0 3.1 42 56
r 0.26493 1 2 cbr 210 ------- 2 1.0 3.1 43 57
+ 0.26493 2 3 cbr 210 ------- 2 1.0 3.1 43 57
- 0.26497 2 3 cbr 210 ------- 2 1.0 3.1 43 57
+ 0.265 1 2 cbr 210 ------- 2 1.0 3.1 44 58
- 0.265 1 2 cbr 210 ------- 2 1.0 3.1 44 58
r 0.26687 0 2 tcp 1040 ------- 1 0.0 3.0 6 39
+ 0.26687 2 3 tcp 1040 ------- 1 0.0 3.0 6 39
- 0.26687 2 3 tcp 1040 ------- 1 0.0 3.0 6 39
r 0.26687 2 0 ack 40 ------- 1 3.0 0.0 4 51
+ 0.26687 0 2 tcp 1040 ------- 1 0.0 3.0 9 59
+ 0.26687 0 2 tcp 1040 ------- 1 0.0 3.0 10 60
d 0.26687 0 2 tcp 1040 ------- 1 0.0 3.0 10 60
r 0.26793 2 3 tcp 1040 ------- 1 0.0 3.0 5 38
+ 0.26793 3 2 ack 40 ------- 1 3.0 0.0 5 61
- 0.26793 3 2 ack 40 ------- 1 3.0 0.0 5 61
r 0.26868 1 2 cbr 210 ------- 2 1.0 3.1 44 58
+ 0.26868 2 3 cbr 210 ------- 2 1.0 3.1 44 58
+ 0.26875 1 2 cbr 210 ------- 2 1.0 3.1 45 62
- 0.26875 1 2 cbr 210 ------- 2 1.0 3.1 45 62
r 0.26961 2 3 cbr 210 ------- 2 1.0 3.1 40 52
r 0.27129 2 3 cbr 210 ------- 2 1.0 3.1 41 55
r 0.27243 1 2 cbr 210 ------- 2 1.0 3.1 45 62
+ 0.27243 2 3 cbr 210 ------- 2 1.0 3.1 45 62
+ 0.2725 1 2 cbr 210 ------- 2 1.0 3.1 46 63
- 0.2725 1 2 cbr 210 ------- 2 1.0 3.1 46 63
r 0.27297 2 3 cbr 210 ------- 2 1.0 3.1 42 56
r 0.27465 2 3 cbr 210 ------- 2 1.0 3.1 43 57
- 0.27519 2 3 cbr 210 ------- 2 1.0 3.1 44 58
- 0.27551 0 2 tcp 1040 ------- 1 0.0 3.0 8 54
r 0.27618 1 2 cbr 210 ------- 2 1.0 3.1 46 63
+ 0.27618 2 3 cbr 210 ------- 2 1.0 3.1 46 63
+ 0.27625 1 2 cbr 210 ------- 2 1.0 3.1 47 64
- 0.27625 1 2 cbr 210 ------- 2 1.0 3.1 47 64
r 0.27625 3 2 ack 40 ------- 1 3.0 0.0 5 61
+ 0.27625 2 0 ack 40 ------- 1 3.0 0.0 5 61
- 0.27625 2 0 ack 40 ------- 1 3.0 0.0 5 61
- 0.27687 2 3 cbr 210 ------- 2 1.0 3.1 45 62
- 0.27855 2 3 cbr 210 ------- 2 1.0 3.1 46 63
r 0.27993 1 2 cbr 210 ------- 2 1.0 3.1 47 64
+ 0.27993 2 3 cbr 210 ------- 2 1.0 3.1 47 64
+ 0.28 1 2 cbr 210 ------- 2 1.0 3.1 48 65
- 0.28 1 2 cbr 210 ------- 2 1.0 3.1 48 65
- 0.28023 2 3 cbr 210 ------- 2 1.0 3.1 47 64
r 0.28319 2 3 tcp 1040 ------- 1 0.0 3.0 6 39
+ 0.28319 3 2 ack 40 ------- 1 3.0 0.0 6 66
- 0.28319 3 2 ack 40 ------- 1 3.0 0.0 6 66
r 0.28351 0 2 tcp 1040 ------- 1 0.0 3.0 7 53
+ 0.28351 2 3 tcp 1040 ------- 1 0.0 3.0 7 53
- 0.28351 2 3 tcp 1040 ------- 1 0.0 3.0 7 53
r 0.28368 1 2 cbr 210 ------- 2 1.0 3.1 48 65
+ 0.28368 2 3 cbr 210 ------- 2 1.0 3.1 48 65
+ 0.28375 1 2 cbr 210 ------- 2 1.0 3.1 49 67
- 0.28375 1 2 cbr 210 ------- 2 1.0 3.1 49 67
r 0.28487 2 3 cbr 210 ------- 2 1.0 3.1 44 58
r 0.28489 2 0 ack 40 ------- 1 3.0 0.0 5 61
+ 0.28489 0 2 tcp 1040 ------- 1 0.0 3.0 11 68
+ 0.28489 0 2 tcp 1040 ------- 1 0.0 3.0 12 69
d 0.28489 0 2 tcp 1040 ------- 1 0.0 3.0 12 69
r 0.28655 2 3 cbr 210 ------- 2 1.0 3.1 45 62
r 0.28743 1 2 cbr 210 ------- 2 1.0 3.1 49 67
+ 0.28743 2 3 cbr 210 ------- 2 1.0 3.1 49 67
+ 0.2875 1 2 cbr 210 ------- 2 1.0 3.1 50 70
- 0.2875 1 2 cbr 210 ------- 2 1.0 3.1 50 70
r 0.28823 2 3 cbr 210 ------- 2 1.0 3.1 46 63
r 0.28991 2 3 cbr 210 ------- 2 1.0 3.1 47 64
r 0.29118 1 2 cbr 210 ------- 2 1.0 3.1 50 70
+ 0.29118 2 3 cbr 210 ------- 2 1.0 3.1 50 70
+ 0.29125 1 2 cbr 210 ------- 2 1.0 3.1 51 71
- 0.29125 1 2 cbr 210 ------- 2 1.0 3.1 51 71
r 0.29151 3 2 ack 40 ------- 1 3.0 0.0 6 66
+ 0.29151 2 0 ack 40 ------- 1 3.0 0.0 6 66
- 0.29151 2 0 ack 40 ------- 1 3.0 0.0 6 66
- 0.29183 2 3 cbr 210 ------- 2 1.0 3.1 48 65
- 0.29215 0 2 tcp 1040 ------- 1 0.0 3.0 9 59
- 0.29351 2 3 cbr 210 ------- 2 1.0 3.1 49 67
r 0.29493 1 2 cbr 210 ------- 2 1.0 3.1 51 71
+ 0.29493 2 3 cbr 210 ------- 2 1.0 3.1 51 71
+ 0.295 1 2 cbr 210 ------- 2 1.0 3.1 52 72
- 0.295 1 2 cbr 210 ------- 2 1.0 3.1 52 72
- 0.29519 2 3 cbr 210 ------- 2 1.0 3.1 50 70
- 0.29687 2 3 cbr 210 ------- 2 1.0 3.1 51 71
r 0.29868 1 2 cbr 210 ------- 2 1.0 3.1 52 72
+ 0.29868 2 3 cbr 210 ------- 2 1.0 3.1 52 72
- 0.29868 2 3 cbr 210 ------- 2 1.0 3.1 52 72
+ 0.29875 1 2 cbr 210 ------- 2 1.0 3.1 53 73
- 0.29875 1 2 cbr 210 ------- 2 1.0 3.1 53 73
r 0.29983 2 3 tcp 1040 ------- 1 0.0 3.0 7 53
+ 0.29983 3 2 ack 40 ------- 1 3.0 0.0 7 74
- 0.29983 3 2 ack 40 ------- 1 3.0 0.0 7 74
r 0.30015 0 2 tcp 1040 ------- 1 0.0 3.0 8 54
+ 0.30015 2 3 tcp 1040 ------- 1 0.0 3.0 8 54
r 0.30015 2 0 ack 40 ------- 1 3.0 0.0 6 66
+ 0.30015 0 2 tcp 1040 ------- 1 0.0 3.0 13 75
+ 0.30015 0 2 tcp 1040 ------- 1 0.0 3.0 14 76
d 0.30015 0 2 tcp 1040 ------- 1 0.0 3.0 14 76
- 0.30036 2 3 tcp 1040 ------- 1 0.0 3.0 8 54
r 0.30151 2 3 cbr 210 ------- 2 1.0 3.1 48 65
r 0.30243 1 2 cbr 210 ------- 2 1.0 3.1 53 73
+ 0.30243 2 3 cbr 210 ------- 2 1.0 3.1 53 73
+ 0.3025 1 2 cbr 210 ------- 2 1.0 3.1 54 77
- 0.3025 1 2 cbr 210 ------- 2 1.0 3.1 54 77
r 0.30319 2 3 cbr 210 ------- 2 1.0 3.1 49 67
r 0.30487 2 3 cbr 210 ------- 2 1.0 3.1 50 70
r 0.30618 1 2 cbr 210 ------- 2 1.0 3.1 54 77
+ 0.30618 2 3 cbr 210 ------- 2 1.0 3.1 54 77
+ 0.30625 1 2 cbr 210 ------- 2 1.0 3.1 55 78
- 0.30625 1 2 cbr 210 ------- 2 1.0 3.1 55 78
r 0.30655 2 3 cbr 210 ------- 2 1.0 3.1 51 71
r 0.30815 3 2 ack 40 ------- 1 3.0 0.0 7 74
+ 0.30815 2 0 ack 40 ------- 1 3.0 0.0 7 74
- 0.30815 2 0 ack 40 ------- 1 3.0 0.0 7 74
r 0.30836 2 3 cbr 210 ------- 2 1.0 3.1 52 72
- 0.30868 2 3 cbr 210 ------- 2 1.0 3.1 53 73
- 0.30879 0 2 tcp 1040 ------- 1 0.0 3.0 11 68
r 0.30993 1 2 cbr 210 ------- 2 1.0 3.1 55 78
+ 0.30993 2 3 cbr 210 ------- 2 1.0 3.1 55 78
+ 0.31 1 2 cbr 210 ------- 2 1.0 3.1 56 79
- 0.31 1 2 cbr 210 ------- 2 1.0 3.1 56 79
- 0.31036 2 3 cbr 210 ------- 2 1.0 3.1 54 77
- 0.31204 2 3 cbr 210 ------- 2 1.0 3.1 55 78
r 0.31368 1 2 cbr 210 ------- 2 1.0 3.1 56 79
+ 0.31368 2 3 cbr 210 ------- 2 1.0 3.1 56 79
- 0.31372 2 3 cbr 210 ------- 2 1.0 3.1 56 79
+ 0.31375 1 2 cbr 210 ------- 2 1.0 3.1 57 80
- 0.31375 1 2 cbr 210 ------- 2 1.0 3.1 57 80
r 0.31668 2 3 tcp 1040 ------- 1 0.0 3.0 8 54
+ 0.31668 3 2 ack 40 ------- 1 3.0 0.0 8 81
- 0.31668 3 2 ack 40 ------- 1 3.0 0.0 8 81
r 0.31679 0 2 tcp 1040 ------- 1 0.0 3.0 9 59
+ 0.31679 2 3 tcp 1040 ------- 1 0.0 3.0 9 59
- 0.31679 2 3 tcp 1040 ------- 1 0.0 3.0 9 59
r 0.31679 2 0 ack 40 ------- 1 3.0 0.0 7 74
+ 0.31679 0 2 tcp 1040 ------- 1 0.0 3.0 15 82
+ 0.31679 0 2 tcp 1040 ------- 1 0.0 3.0 16 83
d 0.31679 0 2 tcp 1040 ------- 1 0.0 3.0 16 83
r 0.31743 1 2 cbr 210 ------- 2 1.0 3.1 57 80
+ 0.31743 2 3 cbr 210 ------- 2 1.0 3.1 57 80
+ 0.3175 1 2 cbr 210 ------- 2 1.0 3.1 58 84
- 0.3175 1 2 cbr 210 ------- 2 1.0 3.1 58 84
r 0.31836 2 3 cbr 210 ------- 2 1.0 3.1 53 73
r 0.32004 2 3 cbr 210 ------- 2 1.0 3.1 54 77
r 0.32118 1 2 cbr 210 ------- 2 1.0 3.1 58 84
+ 0.32118 2 3 cbr 210 ------- 2 1.0 3.1 58 84
+ 0.32125 1 2 cbr 210 ------- 2 1.0 3.1 59 85
- 0.32125 1 2 cbr 210 ------- 2 1.0 3.1 59 85
r 0.32172 2 3 cbr 210 ------- 2 1.0 3.1 55 78
r 0.3234 2 3 cbr 210 ------- 2 1.0 3.1 56 79
r 0.32493 1 2 cbr 210 ------- 2 1.0 3.1 59 85
+ 0.32493 2 3 cbr 210 ------- 2 1.0 3.1 59 85
+ 0.325 1 2 cbr 210 ------- 2 1.0 3.1 60 86
- 0.325 1 2 cbr 210 ------- 2 1.0 3.1 60 86
r 0.325 3 2 ack 40 ------- 1 3.0 0.0 8 81
+ 0.325 2 0 ack 40 ------- 1 3.0 0.0 8 81
- 0.325 2 0 ack 40 ------- 1 3.0 0.0 8 81
- 0.32511 2 3 cbr 210 ------- 2 1.0 3.1 57 80
- 0.32543 0 2 tcp 1040 ------- 1 0.0 3.0 13 75
- 0.32679 2 3 cbr 210 ------- 2 1.0 3.1 58 84
- 0.32847 2 3 cbr 210 ------- 2 1.0 3.1 59 85
r 0.32868 1 2 cbr 210 ------- 2 1.0 3.1 60 86
+ 0.32868 2 3 cbr 210 ------- 2 1.0 3.1 60 86
+ 0.32875 1 2 cbr 210 ------- 2 1.0 3.1 61 87
- 0.32875 1 2 cbr 210 ------- 2 1.0 3.1 61 87
- 0.33015 2 3 cbr 210 ------- 2 1.0 3.1 60 86
r 0.33243 1 2 cbr 210 ------- 2 1.0 3.1 61 87
+ 0.33243 2 3 cbr 210 ------- 2 1.0 3.1 61 87
- 0.33243 2 3 cbr 210 ------- 2 1.0 3.1 61 87
+ 0.3325 1 2 cbr 210 ------- 2 1.0 3.1 62 88
- 0.3325 1 2 cbr 210 ------- 2 1.0 3.1 62 88
r 0.33311 2 3 tcp 1040 ------- 1 0.0 3.0 9 59
+ 0.33311 3 2 ack 40 ------- 1 3.0 0.0 9 89
- 0.33311 3 2 ack 40 ------- 1 3.0 0.0 9 89
r 0.33343 0 2 tcp 1040 ------- 1 0.0 3.0 11 68
+ 0.33343 2 3 tcp 1040 ------- 1 0.0 3.0 11 68
r 0.33364 2 0 ack 40 ------- 1 3.0 0.0 8 81
+ 0.33364 0 2 tcp 1040 ------- 1 0.0 3.0 17 90
+ 0.33364 0 2 tcp 1040 ------- 1 0.0 3.0 18 91
d 0.33364 0 2 tcp 1040 ------- 1 0.0 3.0 18 91
- 0.33411 2 3 tcp 1040 ------- 1 0.0 3.0 11 68
r 0.33479 2 3 cbr 210 ------- 2 1.0 3.1 57 80
r 0.33618 1 2 cbr 210 ------- 2 1.0 3.1 62 88
+ 0.33618 2 3 cbr 210 ------- 2 1.0 3.1 62 88
+ 0.33625 1 2 cbr 210 ------- 2 1.0 3.1 63 92
- 0.33625 1 2 cbr 210 ------- 2 1.0 3.1 63 92
r 0.33647 2 3 cbr 210 ------- 2 1.0 3.1 58 84
r 0.33815 2 3 cbr 210 ------- 2 1.0 3.1 59 85
r 0.33983 2 3 cbr 210 ------- 2 1.0 3.1 60 86
r 0.33993 1 2 cbr 210 ------- 2 1.0 3.1 63 92
+ 0.33993 2 3 cbr 210 ------- 2 1.0 3.1 63 92
+ 0.34 1 2 cbr 210 ------- 2 1.0 3.1 64 93
- 0.34 1 2 cbr 210 ------- 2 1.0 3.1 64 93
r 0.34143 3 2 ack 40 ------- 1 3.0 0.0 9 89
+ 0.34143 2 0 ack 40 ------- 1 3.0 0.0 9 89
- 0.34143 2 0 ack 40 ------- 1 3.0 0.0 9 89
- 0.34207 0 2 tcp 1040 ------- 1 0.0 3.0 15 82
r 0.34211 2 3 cbr 210 ------- 2 1.0 3.1 61 87
- 0.34243 2 3 cbr 210 ------- 2 1.0 3.1 62 88
r 0.34368 1 2 cbr 210 ------- 2 1.0 3.1 64 93
+ 0.34368 2 3 cbr 210 ------- 2 1.0 3.1 64 93
+ 0.34375 1 2 cbr 210 ------- 2 1.0 3.1 65 94
- 0.34375 1 2 cbr 210 ------- 2 1.0 3.1 65 94
- 0.34411 2 3 cbr 210 ------- 2 1.0 3.1 63 92
- 0.34579 2 3 cbr 210 ------- 2 1.0 3.1 64 93
r 0.34743 1 2 cbr 210 ------- 2 1.0 3.1 65 94
+ 0.34743 2 3 cbr 210 ------- 2 1.0 3.1 65 94
- 0.34747 2 3 cbr 210 ------- 2 1.0 3.1 65 94
+ 0.3475 1 2 cbr 210 ------- 2 1.0 3.1 66 95
- 0.3475 1 2 cbr 210 ------- 2 1.0 3.1 66 95
r 0.35007 0 2 tcp 1040 ------- 1 0.0 3.0 13 75
+ 0.35007 2 3 tcp 1040 ------- 1 0.0 3.0 13 75
- 0.35007 2 3 tcp 1040 ------- 1 0.0 3.0 13 75
r 0.35007 2 0 ack 40 ------- 1 3.0 0.0 9 89
+ 0.35007 0 2 tcp 1040 ------- 1 0.0 3.0 19 96
+ 0.35007 0 2 tcp 1040 ------- 1 0.0 3.0 20 97
d 0.35007 0 2 tcp 1040 ------- 1 0.0 3.0 20 97
r 0.35043 2 3 tcp 1040 ------- 1 0.0 3.0 11 68
+ 0.35043 3 2 ack 40 ------- 1 3.0 0.0 9 98
- 0.35043 3 2 ack 40 ------- 1 3.0 0.0 9 98
r 0.35118 1 2 cbr 210 ------- 2 1.0 3.1 66 95
+ 0.35118 2 3 cbr 210 ------- 2 1.0 3.1 66 95
+ 0.35125 1 2 cbr 210 ------- 2 1.0 3.1 67 99
- 0.35125 1 2 cbr 210 ------- 2 1.0 3.1 67 99
r 0.35211 2 3 cbr 210 ------- 2 1.0 3.1 62 88
r 0.35379 2 3 cbr 210 ------- 2 1.0 3.1 63 92
r 0.35493 1 2 cbr 210 ------- 2 1.0 3.1 67 99
+ 0.35493 2 3 cbr 210 ------- 2 1.0 3.1 67 99
+ 0.355 1 2 cbr 210 ------- 2 1.0 3.1 68 100
- 0.355 1 2 cbr 210 ------- 2 1.0 3.1 68 100
r 0.35547 2 3 cbr 210 ------- 2 1.0 3.1 64 93
r 0.35715 2 3 cbr 210 ------- 2 1.0 3.1 65 94
- 0.35839 2 3 cbr 210 ------- 2 1.0 3.1 66 95
r 0.35868 1 2 cbr 210 ------- 2 1.0 3.1 68 100
+ 0.35868 2 3 cbr 210 ------- 2 1.0 3.1 68 100
- 0.35871 0 2 tcp 1040 ------- 1 0.0 3.0 17 90
+ 0.35875 1 2 cbr 210 ------- 2 1.0 3.1 69 101
- 0.35875 1 2 cbr 210 ------- 2 1.0 3.1 69 101
r 0.35875 3 2 ack 40 ------- 1 3.0 0.0 9 98
+ 0.35875 2 0 ack 40 ------- 1 3.0 0.0 9 98
- 0.35875 2 0 ack 40 ------- 1 3.0 0.0 9 98
- 0.36007 2 3 cbr 210 ------- 2 1.0 3.1 67 99
- 0.36175 2 3 cbr 210 ------- 2 1.0 3.1 68 100
r 0.36243 1 2 cbr 210 ------- 2 1.0 3.1 69 101
+ 0.36243 2 3 cbr 210 ------- 2 1.0 3.1 69 101
+ 0.3625 1 2 cbr 210 ------- 2 1.0 3.1 70 102
- 0.3625 1 2 cbr 210 ------- 2 1.0 3.1 70 102
- 0.36343 2 3 cbr 210 ------- 2 1.0 3.1 69 101
r 0.36618 1 2 cbr 210 ------- 2 1.0 3.1 70 102
+ 0.36618 2 3 cbr 210 ------- 2 1.0 3.1 70 102
- 0.36618 2 3 cbr 210 ------- 2 1.0 3.1 70 102
+ 0.36625 1 2 cbr 210 ------- 2 1.0 3.1 71 103
- 0.36625 1 2 cbr 210 ------- 2 1.0 3.1 71 103
r 0.36639 2 3 tcp 1040 ------- 1 0.0 3.0 13 75
+ 0.36639 3 2 ack 40 ------- 1 3.0 0.0 9 104
- 0.36639 3 2 ack 40 ------- 1 3.0 0.0 9 104
r 0.36671 0 2 tcp 1040 ------- 1 0.0 3.0 15 82
+ 0.36671 2 3 tcp 1040 ------- 1 0.0 3.0 15 82
r 0.36739 2 0 ack 40 ------- 1 3.0 0.0 9 98
+ 0.36739 0 2 tcp 1040 ------- 1 0.0 3.0 21 105
- 0.36786 2 3 tcp 1040 ------- 1 0.0 3.0 15 82
r 0.36807 2 3 cbr 210 ------- 2 1.0 3.1 66 95
r 0.36975 2 3 cbr 210 ------- 2 1.0 3.1 67 99
r 0.36993 1 2 cbr 210 ------- 2 1.0 3.1 71 103
+ 0.36993 2 3 cbr 210 ------- 2 1.0 3.1 71 103
+ 0.37 1 2 cbr 210 ------- 2 1.0 3.1 72 106
- 0.37 1 2 cbr 210 ------- 2 1.0 3.1 72 106
r 0.37143 2 3 cbr 210 ------- 2 1.0 3.1 68 100
r 0.37311 2 3 cbr 210 ------- 2 1.0 3.1 69 101
r 0.37368 1 2 cbr 210 ------- 2 1.0 3.1 72 106
+ 0.37368 2 3 cbr 210 ------- 2 1.0 3.1 72 106
+ 0.37375 1 2 cbr 210 ------- 2 1.0 3.1 73 107
- 0.37375 1 2 cbr 210 ------- 2 1.0 3.1 73 107
r 0.37471 3 2 ack 40 ------- 1 3.0 0.0 9 104
+ 0.37471 2 0 ack 40 ------- 1 3.0 0.0 9 104
- 0.37471 2 0 ack 40 ------- 1 3.0 0.0 9 104
- 0.37535 0 2 tcp 1040 ------- 1 0.0 3.0 19 96
r 0.37586 2 3 cbr 210 ------- 2 1.0 3.1 70 102
- 0.37618 2 3 cbr 210 ------- 2 1.0 3.1 71 103
r 0.37743 1 2 cbr 210 ------- 2 1.0 3.1 73 107
+ 0.37743 2 3 cbr 210 ------- 2 1.0 3.1 73 107
+ 0.3775 1 2 cbr 210 ------- 2 1.0 3.1 74 108
- 0.3775 1 2 cbr 210 ------- 2 1.0 3.1 74 108
- 0.37786 2 3 cbr 210 ------- 2 1.0 3.1 72 106
- 0.37954 2 3 cbr 210 ------- 2 1.0 3.1 73 107
r 0.38118 1 2 cbr 210 ------- 2 1.0 3.1 74 108
+ 0.38118 2 3 cbr 210 ------- 2 1.0 3.1 74 108
- 0.38122 2 3 cbr 210 ------- 2 1.0 3.1 74 108
+ 0.38125 1 2 cbr 210 ------- 2 1.0 3.1 75 109
- 0.38125 1 2 cbr 210 ------- 2 1.0 3.1 75 109
r 0.38335 0 2 tcp 1040 ------- 1 0.0 3.0 17 90
+ 0.38335 2 3 tcp 1040 ------- 1 0.0 3.0 17 90
- 0.38335 2 3 tcp 1040 ------- 1 0.0 3.0 17 90
r 0.38335 2 0 ack 40 ------- 1 3.0 0.0 9 104
+ 0.38335 0 2 tcp 1040 ------- 1 0.0 3.0 22 110
r 0.38418 2 3 tcp 1040 ------- 1 0.0 3.0 15 82
+ 0.38418 3 2 ack 40 ------- 1 3.0 0.0 9 111
- 0.38418 3 2 ack 40 ------- 1 3.0 0.0 9 111
r 0.38493 1 2 cbr 210 ------- 2 1.0 3.1 75 109
+ 0.38493 2 3 cbr 210 ------- 2 1.0 3.1 75 109
+ 0.385 1 2 cbr 210 ------- 2 1.0 3.1 76 112
- 0.385 1 2 cbr 210 ------- 2 1.0 3.1 76 112
r 0.38586 2 3 cbr 210 ------- 2 1.0 3.1 71 103
r 0.38754 2 3 cbr 210 ------- 2 1.0 3.1 72 106
r 0.38868 1 2 cbr 210 ------- 2 1.0 3.1 76 112
+ 0.38868 2 3 cbr 210 ------- 2 1.0 3.1 76 112
+ 0.38875 1 2 cbr 210 ------- 2 1.0 3.1 77 113
- 0.38875 1 2 cbr 210 ------- 2 1.0 3.1 77 113
r 0.38922 2 3 cbr 210 ------- 2 1.0 3.1 73 107
r 0.3909 2 3 cbr 210 ------- 2 1.0 3.1 74 108
- 0.39167 2 3 cbr 210 ------- 2 1.0 3.1 75 109
- 0.39199 0 2 tcp 1040 ------- 1 0.0 3.0 21 105
r 0.39243 1 2 cbr 210 ------- 2 1.0 3.1 77 113
+ 0.39243 2 3 cbr 210 ------- 2 1.0 3.1 77 113
+ 0.3925 1 2 cbr 210 ------- 2 1.0 3.1 78 114
- 0.3925 1 2 cbr 210 ------- 2 1.0 3.1 78 114
r 0.3925 3 2 ack 40 ------- 1 3.0 0.0 9 111
+ 0.3925 2 0 ack 40 ------- 1 3.0 0.0 9 111
- 0.3925 2 0 ack 40 ------- 1 3.0 0.0 9 111
- 0.39335 2 3 cbr 210 ------- 2 1.0 3.1 76 112
- 0.39503 2 3 cbr 210 ------- 2 1.0 3.1 77 113
r 0.39618 1 2 cbr 210 ------- 2 1.0 3.1 78 114
+ 0.39618 2 3 cbr 210 ------- 2 1.0 3.1 78 114
+ 0.39625 1 2 cbr 210 ------- 2 1.0 3.1 79 115
- 0.39625 1 2 cbr 210 ------- 2 1.0 3.1 79 115
- 0.39671 2 3 cbr 210 ------- 2 1.0 3.1 78 114
r 0.39967 2 3 tcp 1040 ------- 1 0.0 3.0 17 90
+ 0.39967 3 2 ack 40 ------- 1 3.0 0.0 9 116
- 0.39967 3 2 ack 40 ------- 1 3.0 0.0 9 116
r 0.39993 1 2 cbr 210 ------- 2 1.0 3.1 79 115
+ 0.39993 2 3 cbr 210 ------- 2 1.0 3.1 79 115
- 0.39993 2 3 cbr 210 ------- 2 1.0 3.1 79 115
r 0.39999 0 2 tcp 1040 ------- 1 0.0 3.0 19 96
+ 0.39999 2 3 tcp 1040 ------- 1 0.0 3.0 19 96
+ 0.4 1 2 cbr 210 ------- 2 1.0 3.1 80 117
- 0.4 1 2 cbr 210 ------- 2 1.0 3.1 80 117