V -t * -v 1.0a5 -a 0
A -t * -n 1 -p 0 -o 0x7fffffff -c 30 -a 1
A -t * -h 1 -m 1073741823 -s 0
c -t * -i 1 -n red
c -t * -i 2 -n green
n -t * -a 0 -s 0 -S UP -v circle -c blue -i blue
n -t * -a 1 -s 1 -S UP -v circle -c brown -i brown
n -t * -a 2 -s 2 -S UP -v circle -c yellow -i yellow
n -t * -a 3 -s 3 -S UP -v circle -c orange -i orange
l -t * -s 0 -d 2 -S UP -r 500000 -D 0.0080000000000000002 -c black
l -t * -s 1 -d 2 -S UP -r 1000000 -D 0.002 -c black
l -t * -s 2 -d 3 -S UP -r 1000000 -D 0.0080000000000000002 -c black
+ -t 0.1 -s 0 -d 2 -p tcp -e 40 -c 1 -i 0 -a 1 -x {0.0 3.0 0 ------- null}
- -t 0.1 -s 0 -d 2 -p tcp -e 40 -c 1 -i 0 -a 1 -x {0.0 3.0 0 ------- null}
h -t 0.1 -s 0 -d 2 -p tcp -e 40 -c 1 -i 0 -a 1 -x {0.0 3.0 -1 ------- null}
+ -t 0.1 -s 1 -d 2 -p cbr -e 210 -c 2 -i 1 -a 2 -x {1.0 3.1 0 ------- null}
- -t 0.1 -s 1 -d 2 -p cbr -e 210 -c 2 -i 1 -a 2 -x {1.0 3.1 0 ------- null}
h -t 0.1 -s 1 -d 2 -p cbr -e 210 -c 2 -i 1 -a 2 -x {1.0 3.1 -1 ------- null}
r -t 0.10368 -s 1 -d 2 -p cbr -e 210 -c 2 -i 1 -a 2 -x {1.0 3.1 0 ------- null}
+ -t 0.10368 -s 2 -d 3 -p cbr -e 210 -c 2 -i 1 -a 2 -x {1.0 3.1 0 ------- null}
- -t 0.10368 -s 2 -d 3 -p cbr -e 210 -c 2 -i 1 -a 2 -x {1.0 3.1 0 ------- null}
h -t 0.10368 -s 2 -d 3 -p cbr -e 210 -c 2 -i 1 -a 2 -x {1.0 3.1 -1 ------- null}
+ -t 0.10375 -s 1 -d 2 -p cbr -e 210 -c 2 -i 2 -a 2 -x {1.0 3.1 1 ------- null}
- -t 0.10375 -s 1 -d 2 -p cbr -e 210 -c 2 -i 2 -a 2 -x {1.0 3.1 1 ------- null}
h -t 0.10375 -s 1 -d 2 -p cbr -e 210 -c 2 -i 2 -a 2 -x {1.0 3.1 -1 ------- null}
r -t 0.10743 -s 1 -d 2 -p cbr -e 210 -c 2 -i 2 -a 2 -x {1.0 3.1 1 ------- null}
+ -t 0.10743 -s 2 -d 3 -p cbr -e 210 -c 2 -i 2 -a 2 -x {1.0 3.1 1 ------- null}
- -t 0.10743 -s 2 -d 3 -p cbr -e 210 -c 2 -i 2 -a 2 -x {1.0 3.1 1 ------- null}
h -t 0.10743 -s 2 -d 3 -p cbr -e 210 -c 2 -i 2 -a 2 -x {1.0 3.1 -1 ------- null}
+ -t 0.1075 -s 1 -d 2 -p cbr -e 210 -c 2 -i 3 -a 2 -x {1.0 3.1 2 ------- null}
- -t 0.1075 -s 1 -d 2 -p cbr -e 210 -c 2 -i 3 -a 2 -x {1.0 3.1 2 ------- null}
h -t 0.1075 -s 1 -d 2 -p cbr -e 210 -c 2 -i 3 -a 2 -x {1.0 3.1 -1 ------- null}
r -t 0.10864 -s 0 -d 2 -p tcp -e 40 -c 1 -i 0 -a 1 -x {0.0 3.0 0 ------- null}
+ -t 0.10864 -s 2 -d 3 -p tcp -e 40 -c 1 -i 0 -a 1 -x {0.0 3.0 0 ------- null}
- -t 0.10911 -s 2 -d 3 -p tcp -e 40 -c 1 -i 0 -a 1 -x {0.0 3.0 0 ------- null}
h -t 0.10911 -s 2 -d 3 -p tcp -e 40 -c 1 -i 0 -a 1 -x {0.0 3.0 -1 ------- null}
r -t 0.11118 -s 1 -d 2 -p cbr -e 210 -c 2 -i 3 -a 2 -x {1.0 3.1 2 ------- null}
+ -t 0.11118 -s 2 -d 3 -p cbr -e 210 -c 2 -i 3 -a 2 -x {1.0 3.1 2 ------- null}
- -t 0.11118 -s 2 -d 3 -p cbr -e 210 -c 2 -i 3 -a 2 -x {1.0 3.1 2 ------- null}
h -t 0.11118 -s 2 -d 3 -p cbr -e 210 -c 2 -i 3 -a 2 -x {1.0 3.1 -1 ------- null}
+ -t 0.11125 -s 1 -d 2 -p cbr -e 210 -c 2 -i 4 -a 2 -x {1.0 3.1 3 ------- null}
- -t 0.11125 -s 1 -d 2 -p cbr -e 210 -c 2 -i 4 -a 2 -x {1.0 3.1 3 ------- null}
h -t 0.11125 -s 1 -d 2 -p cbr -e 210 -c 2 -i 4 -a 2 -x {1.0 3.1 -1 ------- null}
r -t 0.11336 -s 2 -d 3 -p cbr -e 210 -c 2 -i 1 -a 2 -x {1.0 3.1 0 ------- null}
r -t 0.11493 -s 1 -d 2 -p cbr -e 210 -c 2 -i 4 -a 2 -x {1.0 3.1 3 ------- null}
+ -t 0.11493 -s 2 -d 3 -p cbr -e 210 -c 2 -i 4 -a 2 -x {1.0 3.1 3 ------- null}
- -t 0.11493 -s 2 -d 3 -p cbr -e 210 -c 2 -i 4 -a 2 -x {1.0 3.1 3 ------- null}
h -t 0.11493 -s 2 -d 3 -p cbr -e 210 -c 2 -i 4 -a 2 -x {1.0 3.1 -1 ------- null}
+ -t 0.115 -s 1 -d 2 -p cbr -e 210 -c 2 -i 5 -a 2 -x {1.0 3.1 4 ------- null}
- -t 0.115 -s 1 -d 2 -p cbr -e 210 -c 2 -i 5 -a 2 -x {1.0 3.1 4 ------- null}
h -t 0.115 -s 1 -d 2 -p cbr -e 210 -c 2 -i 5 -a 2 -x {1.0 3.1 -1 ------- null}
r -t 0.11711 -s 2 -d 3 -p cbr -e 210 -c 2 -i 2 -a 2 -x {1.0 3.1 1 ------- null}
r -t 0.11743 -s 2 -d 3 -p tcp -e 40 -c 1 -i 0 -a 1 -x {0.0 3.0 0 ------- null}
+ -t 0.11743 -s 3 -d 2 -p ack -e 40 -c 1 -i 6 -a 1 -x {3.0 0.0 0 ------- null}
- -t 0.11743 -s 3 -d 2 -p ack -e 40 -c 1 -i 6 -a 1 -x {3.0 0.0 0 ------- null}
h -t 0.11743 -s 3 -d 2 -p ack -e 40 -c 1 -i 6 -a 1 -x {3.0 0.0 -1 ------- null}
r -t 0.11868 -s 1 -d 2 -p cbr -e 210 -c 2 -i 5 -a 2 -x {1.0 3.1 4 ------- null}
+ -t 0.11868 -s 2 -d 3 -p cbr -e 210 -c 2 -i 5 -a 2 -x {1.0 3.1 4 ------- null}
- -t 0.11868 -s 2 -d 3 -p cbr -e 210 -c 2 -i 5 -a 2 -x {1.0 3.1 4 ------- null}
h -t 0.11868 -s 2 -d 3 -p cbr -e 210 -c 2 -i 5 -a 2 -x {1.0 3.1 -1 ------- null}
+ -t 0.11875 -s 1 -d 2 -p cbr -e 210 -c 2 -i 7 -a 2 -x {1.0 3.1 5 ------- null}
- -t 0.11875 -s 1 -d 2 -p cbr -e 210 -c 2 -i 7 -a 2 -x {1.0 3.1 5 ------- null}
h -t 0.11875 -s 1 -d 2 -p cbr -e 210 -c 2 -i 7 -a 2 -x {1.0 3.1 -1 ------- null}
r -t 0.12086 -s 2 -d 3 -p cbr -e 210 -c 2 -i 3 -a 2 -x {1.0 3.1 2 ------- null}
r -t 0.12243 -s 1 -d 2 -p cbr -e 210 -c 2 -i 7 -a 2 -x {1.0 3.1 5 ------- null}
+ -t 0.12243 -s 2 -d 3 -p cbr -e 210 -c 2 -i 7 -a 2 -x {1.0 3.1 5 ------- null}
- -t 0.12243 -s 2 -d 3 -p cbr -e 210 -c 2 -i 7 -a 2 -x {1.0 3.1 5 ------- null}
h -t 0.12243 -s 2 -d 3 -p cbr -e 210 -c 2 -i 7 -a 2 -x {1.0 3.1 -1 ------- null}
+ -t 0.1225 -s 1 -d 2 -p cbr -e 210 -c 2 -i 8 -a 2 -x {1.0 3.1 6 ------- null}
- -t 0.1225 -s 1 -d 2 -p cbr -e 210 -c 2 -i 8 -a 2 -x {1.0 3.1 6 ------- null}
h -t 0.1225 -s 1 -d 2 -p cbr -e 210 -c 2 -i 8 -a 2 -x {1.0 3.1 -1 ------- null}
r -t 0.12461 -s 2 -d 3 -p cbr -e 210 -c 2 -i 4 -a 2 -x {1.0 3.1 3 ------- null}
r -t 0.12575 -s 3 -d 2 -p ack -e 40 -c 1 -i 6 -a 1 -x {3.0 0.0 0 ------- null}
+ -t 0.12575 -s 2 -d 0 -p ack -e 40 -c 1 -i 6 -a 1 -x {3.0 0.0 0 ------- null}
- -t 0.12575 -s 2 -d 0 -p ack -e 40 -c 1 -i 6 -a 1 -x {3.0 0.0 0 ------- null}
h -t 0.12575 -s 2 -d 0 -p ack -e 40 -c 1 -i 6 -a 1 -x {3.0 0.0 -1 ------- null}
r -t 0.12618 -s 1 -d 2 -p cbr -e 210 -c 2 -i 8 -a 2 -x {1.0 3.1 6 ------- null}
+ -t 0.12618 -s 2 -d 3 -p cbr -e 210 -c 2 -i 8 -a 2 -x {1.0 3.1 6 ------- null}
- -t 0.12618 -s 2 -d 3 -p cbr -e 210 -c 2 -i 8 -a 2 -x {1.0 3.1 6 ------- null}
h -t 0.12618 -s 2 -d 3 -p cbr -e 210 -c 2 -i 8 -a 2 -x {1.0 3.1 -1 ------- null}
+ -t 0.12625 -s 1 -d 2 -p cbr -e 210 -c 2 -i 9 -a 2 -x {1.0 3.1 7 ------- null}
- -t 0.12625 -s 1 -d 2 -p cbr -e 210 -c 2 -i 9 -a 2 -x {1.0 3.1 7 ------- null}
h -t 0.12625 -s 1 -d 2 -p cbr -e 210 -c 2 -i 9 -a 2 -x {1.0 3.1 -1 ------- null}
r -t 0.12836 -s 2 -d 3 -p cbr -e 210 -c 2 -i 5 -a 2 -x {1.0 3.1 4 ------- null}
r -t 0.12993 -s 1 -d 2 -p cbr -e 210 -c 2 -i 9 -a 2 -x {1.0 3.1 7 ------- null}
+ -t 0.12993 -s 2 -d 3 -p cbr -e 210 -c 2 -i 9 -a 2 -x {1.0 3.1 7 ------- null}
- -t 0.12993 -s 2 -d 3 -p cbr -e 210 -c 2 -i 9 -a 2 -x {1.0 3.1 7 ------- null}
h -t 0.12993 -s 2 -d 3 -p cbr -e 210 -c 2 -i 9 -a 2 -x {1.0 3.1 -1 ------- null}
+ -t 0.13 -s 1 -d 2 -p cbr -e 210 -c 2 -i 10 -a 2 -x {1.0 3.1 8 ------- null}
- -t 0.13 -s 1 -d 2 -p cbr -e 210 -c 2 -i 10 -a 2 -x {1.0 3.1 8 ------- null}
h -t 0.13 -s 1 -d 2 -p cbr -e 210 -c 2 -i 10 -a 2 -x {1.0 3.1 -1 ------- null}
r -t 0.13211 -s 2 -d 3 -p cbr -e 210 -c 2 -i 7 -a 2 -x {1.0 3.1 5 ------- null}
r -t 0.13368 -s 1 -d 2 -p cbr -e 210 -c 2 -i 10 -a 2 -x {1.0 3.1 8 ------- null}
+ -t 0.13368 -s 2 -d 3 -p cbr -e 210 -c 2 -i 10 -a 2 -x {1.0 3.1 8 ------- null}
- -t 0.13368 -s 2 -d 3 -p cbr -e 210 -c 2 -i 10 -a 2 -x {1.0 3.1 8 ------- null}
h -t 0.13368 -s 2 -d 3 -p cbr -e 210 -c 2 -i 10 -a 2 -x {1.0 3.1 -1 ------- null}
+ -t 0.13375 -s 1 -d 2 -p cbr -e 210 -c 2 -i 11 -a 2 -x {1.0 3.1 9 ------- null}
- -t 0.13375 -s 1 -d 2 -p cbr -e 210 -c 2 -i 11 -a 2 -x {1.0 3.1 9 ------- null}
h -t 0.13375 -s 1 -d 2 -p cbr -e 210 -c 2 -i 11 -a 2 -x {1.0 3.1 -1 ------- null}
r -t 0.13439 -s 2 -d 0 -p ack -e 40 -c 1 -i 6 -a 1 -x {3.0 0.0 0 ------- null}
+ -t 0.13439 -s 0 -d 2 -p tcp -e 1040 -c 1 -i 12 -a 1 -x {0.0 3.0 1 ------- null}
- -t 0.13439 -s 0 -d 2 -p tcp -e 1040 -c 1 -i 12 -a 1 -x {0.0 3.0 1 ------- null}
h -t 0.13439 -s 0 -d 2 -p tcp -e 1040 -c 1 -i 12 -a 1 -x {0.0 3.0 -1 ------- null}
+ -t 0.13439 -s 0 -d 2 -p tcp -e 1040 -c 1 -i 13 -a 1 -x {0.0 3.0 2 ------- null}
r -t 0.13586 -s 2 -d 3 -p cbr -e 210 -c 2 -i 8 -a 2 -x {1.0 3.1 6 ------- null}
r -t 0.13743 -s 1 -d 2 -p cbr -e 210 -c 2 -i 11 -a 2 -x {1.0 3.1 9 ------- null}
+ -t 0.13743 -s 2 -d 3 -p cbr -e 210 -c 2 -i 11 -a 2 -x {1.0 3.1 9 ------- null}
- -t 0.13743 -s 2 -d 3 -p cbr -e 210 -c 2 -i 11 -a 2 -x {1.0 3.1 9 ------- null}
h -t 0.13743 -s 2 -d 3 -p cbr -e 210 -c 2 -i 11 -a 2 -x {1.0 3.1 -1 ------- null}
+ -t 0.1375 -s 1 -d 2 -p cbr -e 210 -c 2 -i 14 -a 2 -x {1.0 3.1 10 ------- null}
- -t 0.1375 -s 1 -d 2 -p cbr -e 210 -c 2 -i 14 -a 2 -x {1.0 3.1 10 ------- null}
h -t 0.1375 -s 1 -d 2 -p cbr -e 210 -c 2 -i 14 -a 2 -x {1.0 3.1 -1 ------- null}
r -t 0.13961 -s 2 -d 3 -p cbr -e 210 -c 2 -i 9 -a 2 -x {1.0 3.1 7 ------- null}
r -t 0.14118 -s 1 -d 2 -p cbr -e 210 -c 2 -i 14 -a 2 -x {1.0 3.1 10 ------- null}
+ -t 0.14118 -s 2 -d 3 -p cbr -e 210 -c 2 -i 14 -a 2 -x {1.0 3.1 10 ------- null}
- -t 0.14118 -s 2 -d 3 -p cbr -e 210 -c 2 -i 14 -a 2 -x {1.0 3.1 10 ------- null}
h -t 0.14118 -s 2 -d 3 -p cbr -e 210 -c 2 -i 14 -a 2 -x {1.0 3.1 -1 ------- null}
+ -t 0.14125 -s 1 -d 2 -p cbr -e 210 -c 2 -i 15 -a 2 -x {1.0 3.1 11 ------- null}
- -t 0.14125 -s 1 -d 2 -p cbr -e 210 -c 2 -i 15 -a 2 -x {1.0 3.1 11 ------- null}
h -t 0.14125 -s 1 -d 2 -p cbr -e 210 -c 2 -i 15 -a 2 -x {1.0 3.1 -1 ------- null}
r -t 0.14336 -s 2 -d 3 -p cbr -e 210 -c 2 -i 10 -a 2 -x {1.0 3.1 8 ------- null}
r -t 0.14493 -s 1 -d 2 -p cbr -e 210 -c 2 -i 15 -a 2 -x {1.0 3.1 11 ------- null}
+ -t 0.14493 -s 2 -d 3 -p cbr -e 210 -c 2 -i 15 -a 2 -x {1.0 3.1 11 ------- null}
- -t 0.14493 -s 2 -d 3 -p cbr -e 210 -c 2 -i 15 -a 2 -x {1.0 3.1 11 ------- null}
h -t 0.14493 -s 2 -d 3 -p cbr -e 210 -c 2 -i 15 -a 2 -x {1.0 3.1 -1 ------- null}
+ -t 0.145 -s 1 -d 2 -p cbr -e 210 -c 2 -i 16 -a 2 -x {1.0 3.1 12 ------- null}
- -t 0.145 -s 1 -d 2 -p cbr -e 210 -c 2 -i 16 -a 2 -x {1.0 3.1 12 ------- null}
h -t 0.145 -s 1 -d 2 -p cbr -e 210 -c 2 -i 16 -a 2 -x {1.0 3.1 -1 ------- null}
r -t 0.14711 -s 2 -d 3 -p cbr -e 210 -c 2 -i 11 -a 2 -x {1.0 3.1 9 ------- null}
r -t 0.14868 -s 1 -d 2 -p cbr -e 210 -c 2 -i 16 -a 2 -x {1.0 3.1 12 ------- null}
+ -t 0.14868 -s 2 -d 3 -p cbr -e 210 -c 2 -i 16 -a 2 -x {1.0 3.1 12 ------- null}
- -t 0.14868 -s 2 -d 3 -p cbr -e 210 -c 2 -i 16 -a 2 -x {1.0 3.1 12 ------- null}
h -t 0.14868 -s 2 -d 3 -p cbr -e 210 -c 2 -i 16 -a 2 -x {1.0 3.1 -1 ------- null}
+ -t 0.14875 -s 1 -d 2 -p cbr -e 210 -c 2 -i 17 -a 2 -x {1.0 3.1 13 ------- null}
- -t 0.14875 -s 1 -d 2 -p cbr -e 210 -c 2 -i 17 -a 2 -x {1.0 3.1 13 ------- null}
h -t 0.14875 -s 1 -d 2 -p cbr -e 210 -c 2 -i 17 -a 2 -x {1.0 3.1 -1 ------- null}
r -t 0.15086 -s 2 -d 3 -p cbr -e 210 -c 2 -i 14 -a 2 -x {1.0 3.1 10 ------- null}
- -t 0.15103 -s 0 -d 2 -p tcp -e 1040 -c 1 -i 13 -a 1 -x {0.0 3.0 2 ------- null}
h -t 0.15103 -s 0 -d 2 -p tcp -e 1040 -c 1 -i 13 -a 1 -x {0.0 3.0 -1 ------- null}
r -t 0.15243 -s 1 -d 2 -p cbr -e 210 -c 2 -i 17 -a 2 -x {1.0 3.1 13 ------- null}
+ -t 0.15243 -s 2 -d 3 -p cbr -e 210 -c 2 -i 17 -a 2 -x {1.0 3.1 13 ------- null}
- -t 0.15243 -s 2 -d 3 -p cbr -e 210 -c 2 -i 17 -a 2 -x {1.0 3.1 13 ------- null}
h -t 0.15243 -s 2 -d 3 -p cbr -e 210 -c 2 -i 17 -a 2 -x {1.0 3.1 -1 ------- null}
+ -t 0.1525 -s 1 -d 2 -p cbr -e 210 -c 2 -i 18 -a 2 -x {1.0 3.1 14 ------- null}
- -t 0.1525 -s 1 -d 2 -p cbr -e 210 -c 2 -i 18 -a 2 -x {1.0 3.1 14 ------- null}
h -t 0.1525 -s 1 -d 2 -p cbr -e 210 -c 2 -i 18 -a 2 -x {1.0 3.1 -1 ------- null}
r -t 0.15461 -s 2 -d 3 -p cbr -e 210 -c 2 -i 15 -a 2 -x {1.0 3.1 11 ------- null}
r -t 0.15618 -s 1 -d 2 -p cbr -e 210 -c 2 -i 18 -a 2 -x {1.0 3.1 14 ------- null}
+ -t 0.15618 -s 2 -d 3 -p cbr -e 210 -c 2 -i 18 -a 2 -x {1.0 3.1 14 ------- null}
- -t 0.15618 -s 2 -d 3 -p cbr -e 210 -c 2 -i 18 -a 2 -x {1.0 3.1 14 ------- null}
h -t 0.15618 -s 2 -d 3 -p cbr -e 210 -c 2 -i 18 -a 2 -x {1.0 3.1 -1 ------- null}
+ -t 0.15625 -s 1 -d 2 -p cbr -e 210 -c 2 -i 19 -a 2 -x {1.0 3.1 15 ------- null}
- -t 0.15625 -s 1 -d 2 -p cbr -e 210 -c 2 -i 19 -a 2 -x {1.0 3.1 15 ------- null}
h -t 0.15625 -s 1 -d 2 -p cbr -e 210 -c 2 -i 19 -a 2 -x {1.0 3.1 -1 ------- null}
r -t 0.15836 -s 2 -d 3 -p cbr -e 210 -c 2 -i 16 -a 2 -x {1.0 3.1 12 ------- null}
r -t 0.15903 -s 0 -d 2 -p tcp -e 1040 -c 1 -i 12 -a 1 -x {0.0 3.0 1 ------- null}
+ -t 0.15903 -s 2 -d 3 -p tcp -e 1040 -c 1 -i 12 -a 1 -x {0.0 3.0 1 ------- null}
- -t 0.15903 -s 2 -d 3 -p tcp -e 1040 -c 1 -i 12 -a 1 -x {0.0 3.0 1 ------- null}
h -t 0.15903 -s 2 -d 3 -p tcp -e 1040 -c 1 -i 12 -a 1 -x {0.0 3.0 -1 ------- null}
r -t 0.15993 -s 1 -d 2 -p cbr -e 210 -c 2 -i 19 -a 2 -x {1.0 3.1 15 ------- null}
+ -t 0.15993 -s 2 -d 3 -p cbr -e 210 -c 2 -i 19 -a 2 -x {1.0 3.1 15 ------- null}
+ -t 0.16 -s 1 -d 2 -p cbr -e 210 -c 2 -i 20 -a 2 -x {1.0 3.1 16 ------- null}
- -t 0.16 -s 1 -d 2 -p cbr -e 210 -c 2 -i 20 -a 2 -x {1.0 3.1 16 ------- null}
h -t 0.16 -s 1 -d 2 -p cbr -e 210 -c 2 -i 20 -a 2 -x {1.0 3.1 -1 ------- null}
r -t 0.16211 -s 2 -d 3 -p cbr -e 210 -c 2 -i 17 -a 2 -x {1.0 3.1 13 ------- null}
r -t 0.16368 -s 1 -d 2 -p cbr -e 210 -c 2 -i 20 -a 2 -x {1.0 3.1 16 ------- null}
+ -t 0.16368 -s 2 -d 3 -p cbr -e 210 -c 2 -i 20 -a 2 -x {1.0 3.1 16 ------- null}
+ -t 0.16375 -s 1 -d 2 -p cbr -e 210 -c 2 -i 21 -a 2 -x {1.0 3.1 17 ------- null}
- -t 0.16375 -s 1 -d 2 -p cbr -e 210 -c 2 -i 21 -a 2 -x {1.0 3.1 17 ------- null}
h -t 0.16375 -s 1 -d 2 -p cbr -e 210 -c 2 -i 21 -a 2 -x {1.0 3.1 -1 ------- null}
r -t 0.16586 -s 2 -d 3 -p cbr -e 210 -c 2 -i 18 -a 2 -x {1.0 3.1 14 ------- null}
- -t 0.16735 -s 2 -d 3 -p cbr -e 210 -c 2 -i 19 -a 2 -x {1.0 3.1 15 ------- null}
h -t 0.16735 -s 2 -d 3 -p cbr -e 210 -c 2 -i 19 -a 2 -x {1.0 3.1 -1 ------- null}
r -t 0.16743 -s 1 -d 2 -p cbr -e 210 -c 2 -i 21 -a 2 -x {1.0 3.1 17 ------- null}
+ -t 0.16743 -s 2 -d 3 -p cbr -e 210 -c 2 -i 21 -a 2 -x {1.0 3.1 17 ------- null}
+ -t 0.1675 -s 1 -d 2 -p cbr -e 210 -c 2 -i 22 -a 2 -x {1.0 3.1 18 ------- null}
- -t 0.1675 -s 1 -d 2 -p cbr -e 210 -c 2 -i 22 -a 2 -x {1.0 3.1 18 ------- null}
h -t 0.1675 -s 1 -d 2 -p cbr -e 210 -c 2 -i 22 -a 2 -x {1.0 3.1 -1 ------- null}
- -t 0.16903 -s 2 -d 3 -p cbr -e 210 -c 2 -i 20 -a 2 -x {1.0 3.1 16 ------- null}
h -t 0.16903 -s 2 -d 3 -p cbr -e 210 -c 2 -i 20 -a 2 -x {1.0 3.1 -1 ------- null}
- -t 0.17071 -s 2 -d 3 -p cbr -e 210 -c 2 -i 21 -a 2 -x {1.0 3.1 17 ------- null}
h -t 0.17071 -s 2 -d 3 -p cbr -e 210 -c 2 -i 21 -a 2 -x {1.0 3.1 -1 ------- null}
r -t 0.17118 -s 1 -d 2 -p cbr -e 210 -c 2 -i 22 -a 2 -x {1.0 3.1 18 ------- null}
+ -t 0.17118 -s 2 -d 3 -p cbr -e 210 -c 2 -i 22 -a 2 -x {1.0 3.1 18 ------- null}
+ -t 0.17125 -s 1 -d 2 -p cbr -e 210 -c 2 -i 23 -a 2 -x {1.0 3.1 19 ------- null}
- -t 0.17125 -s 1 -d 2 -p cbr -e 210 -c 2 -i 23 -a 2 -x {1.0 3.1 19 ------- null}
h -t 0.17125 -s 1 -d 2 -p cbr -e 210 -c 2 -i 23 -a 2 -x {1.0 3.1 -1 ------- null}
- -t 0.17239 -s 2 -d 3 -p cbr -e 210 -c 2 -i 22 -a 2 -x {1.0 3.1 18 ------- null}
h -t 0.17239 -s 2 -d 3 -p cbr -e 210 -c 2 -i 22 -a 2 -x {1.0 3.1 -1 ------- null}
r -t 0.17493 -s 1 -d 2 -p cbr -e 210 -c 2 -i 23 -a 2 -x {1.0 3.1 19 ------- null}
+ -t 0.17493 -s 2 -d 3 -p cbr -e 210 -c 2 -i 23 -a 2 -x {1.0 3.1 19 ------- null}
- -t 0.17493 -s 2 -d 3 -p cbr -e 210 -c 2 -i 23 -a 2 -x {1.0 3.1 19 ------- null}
h -t 0.17493 -s 2 -d 3 -p cbr -e 210 -c 2 -i 23 -a 2 -x {1.0 3.1 -1 ------- null}
+ -t 0.175 -s 1 -d 2 -p cbr -e 210 -c 2 -i 24 -a 2 -x {1.0 3.1 20 ------- null}
- -t 0.175 -s 1 -d 2 -p cbr -e 210 -c 2 -i 24 -a 2 -x {1.0 3.1 20 ------- null}
h -t 0.175 -s 1 -d 2 -p cbr -e 210 -c 2 -i 24 -a 2 -x {1.0 3.1 -1 ------- null}
r -t 0.17535 -s 2 -d 3 -p tcp -e 1040 -c 1 -i 12 -a 1 -x {0.0 3.0 1 ------- null}
+ -t 0.17535 -s 3 -d 2 -p ack -e 40 -c 1 -i 25 -a 1 -x {3.0 0.0 1 ------- null}
- -t 0.17535 -s 3 -d 2 -p ack -e 40 -c 1 -i 25 -a 1 -x {3.0 0.0 1 ------- null}
h -t 0.17535 -s 3 -d 2 -p ack -e 40 -c 1 -i 25 -a 1 -x {3.0 0.0 -1 ------- null}
r -t 0.17567 -s 0 -d 2 -p tcp -e 1040 -c 1 -i 13 -a 1 -x {0.0 3.0 2 ------- null}
+ -t 0.17567 -s 2 -d 3 -p tcp -e 1040 -c 1 -i 13 -a 1 -x {0.0 3.0 2 ------- null}
- -t 0.17661 -s 2 -d 3 -p tcp -e 1040 -c 1 -i 13 -a 1 -x {0.0 3.0 2 ------- null}
h -t 0.17661 -s 2 -d 3 -p tcp -e 1040 -c 1 -i 13 -a 1 -x {0.0 3.0 -1 ------- null}
r -t 0.17703 -s 2 -d 3 -p cbr -e 210 -c 2 -i 19 -a 2 -x {1.0 3.1 15 ------- null}
r -t 0.17868 -s 1 -d 2 -p cbr -e 210 -c 2 -i 24 -a 2 -x {1.0 3.1 20 ------- null}
+ -t 0.17868 -s 2 -d 3 -p cbr -e 210 -c 2 -i 24 -a 2 -x {1.0 3.1 20 ------- null}
r -t 0.17871 -s 2 -d 3 -p cbr -e 210 -c 2 -i 20 -a 2 -x {1.0 3.1 16 ------- null}
+ -t 0.17875 -s 1 -d 2 -p cbr -e 210 -c 2 -i 26 -a 2 -x {1.0 3.1 21 ------- null}
- -t 0.17875 -s 1 -d 2 -p cbr -e 210 -c 2 -i 26 -a 2 -x {1.0 3.1 21 ------- null}
h -t 0.17875 -s 1 -d 2 -p cbr -e 210 -c 2 -i 26 -a 2 -x {1.0 3.1 -1 ------- null}
r -t 0.18039 -s 2 -d 3 -p cbr -e 210 -c 2 -i 21 -a 2 -x {1.0 3.1 17 ------- null}
r -t 0.18207 -s 2 -d 3 -p cbr -e 210 -c 2 -i 22 -a 2 -x {1.0 3.1 18 ------- null}
r -t 0.18243 -s 1 -d 2 -p cbr -e 210 -c 2 -i 26 -a 2 -x {1.0 3.1 21 ------- null}
+ -t 0.18243 -s 2 -d 3 -p cbr -e 210 -c 2 -i 26 -a 2 -x {1.0 3.1 21 ------- null}
+ -t 0.1825 -s 1 -d 2 -p cbr -e 210 -c 2 -i 27 -a 2 -x {1.0 3.1 22 ------- null}
- -t 0.1825 -s 1 -d 2 -p cbr -e 210 -c 2 -i 27 -a 2 -x {1.0 3.1 22 ------- null}
h -t 0.1825 -s 1 -d 2 -p cbr -e 210 -c 2 -i 27 -a 2 -x {1.0 3.1 -1 ------- null}
r -t 0.18367 -s 3 -d 2 -p ack -e 40 -c 1 -i 25 -a 1 -x {3.0 0.0 1 ------- null}
+ -t 0.18367 -s 2 -d 0 -p ack -e 40 -c 1 -i 25 -a 1 -x {3.0 0.0 1 ------- null}
- -t 0.18367 -s 2 -d 0 -p ack -e 40 -c 1 -i 25 -a 1 -x {3.0 0.0 1 ------- null}
h -t 0.18367 -s 2 -d 0 -p ack -e 40 -c 1 -i 25 -a 1 -x {3.0 0.0 -1 ------- null}
r -t 0.18461 -s 2 -d 3 -p cbr -e 210 -c 2 -i 23 -a 2 -x {1.0 3.1 19 ------- null}
- -t 0.18493 -s 2 -d 3 -p cbr -e 210 -c 2 -i 24 -a 2 -x {1.0 3.1 20 ------- null}
h -t 0.18493 -s 2 -d 3 -p cbr -e 210 -c 2 -i 24 -a 2 -x {1.0 3.1 -1 ------- null}
r -t 0.18618 -s 1 -d 2 -p cbr -e 210 -c 2 -i 27 -a 2 -x {1.0 3.1 22 ------- null}
+ -t 0.18618 -s 2 -d 3 -p cbr -e 210 -c 2 -i 27 -a 2 -x {1.0 3.1 22 ------- null}
+ -t 0.18625 -s 1 -d 2 -p cbr -e 210 -c 2 -i 28 -a 2 -x {1.0 3.1 23 ------- null}
- -t 0.18625 -s 1 -d 2 -p cbr -e 210 -c 2 -i 28 -a 2 -x {1.0 3.1 23 ------- null}
h -t 0.18625 -s 1 -d 2 -p cbr -e 210 -c 2 -i 28 -a 2 -x {1.0 3.1 -1 ------- null}
- -t 0.18661 -s 2 -d 3 -p cbr -e 210 -c 2 -i 26 -a 2 -x {1.0 3.1 21 ------- null}
h -t 0.18661 -s 2 -d 3 -p cbr -e 210 -c 2 -i 26 -a 2 -x {1.0 3.1 -1 ------- null}
- -t 0.18829 -s 2 -d 3 -p cbr -e 210 -c 2 -i 27 -a 2 -x {1.0 3.1 22 ------- null}
h -t 0.18829 -s 2 -d 3 -p cbr -e 210 -c 2 -i 27 -a 2 -x {1.0 3.1 -1 ------- null}
r -t 0.18993 -s 1 -d 2 -p cbr -e 210 -c 2 -i 28 -a 2 -x {1.0 3.1 23 ------- null}
+ -t 0.18993 -s 2 -d 3 -p cbr -e 210 -c 2 -i 28 -a 2 -x {1.0 3.1 23 ------- null}
- -t 0.18997 -s 2 -d 3 -p cbr -e 210 -c 2 -i 28 -a 2 -x {1.0 3.1 23 ------- null}
h -t 0.18997 -s 2 -d 3 -p cbr -e 210 -c 2 -i 28 -a 2 -x {1.0 3.1 -1 ------- null}
+ -t 0.19 -s 1 -d 2 -p cbr -e 210 -c 2 -i 29 -a 2 -x {1.0 3.1 24 ------- null}
- -t 0.19 -s 1 -d 2 -p cbr -e 210 -c 2 -i 29 -a 2 -x {1.0 3.1 24 ------- null}
h -t 0.19 -s 1 -d 2 -p cbr -e 210 -c 2 -i 29 -a 2 -x {1.0 3.1 -1 ------- null}
r -t 0.19231 -s 2 -d 0 -p ack -e 40 -c 1 -i 25 -a 1 -x {3.0 0.0 1 ------- null}
+ -t 0.19231 -s 0 -d 2 -p tcp -e 1040 -c 1 -i 30 -a 1 -x {0.0 3.0 3 ------- null}
- -t 0.19231 -s 0 -d 2 -p tcp -e 1040 -c 1 -i 30 -a 1 -x {0.0 3.0 3 ------- null}
h -t 0.19231 -s 0 -d 2 -p tcp -e 1040 -c 1 -i 30 -a 1 -x {0.0 3.0 -1 ------- null}
+ -t 0.19231 -s 0 -d 2 -p tcp -e 1040 -c 1 -i 31 -a 1 -x {0.0 3.0 4 ------- null}
r -t 0.19293 -s 2 -d 3 -p tcp -e 1040 -c 1 -i 13 -a 1 -x {0.0 3.0 2 ------- null}
+ -t 0.19293 -s 3 -d 2 -p ack -e 40 -c 1 -i 32 -a 1 -x {3.0 0.0 2 ------- null}
- -t 0.19293 -s 3 -d 2 -p ack -e 40 -c 1 -i 32 -a 1 -x {3.0 0.0 2 ------- null}
h -t 0.19293 -s 3 -d 2 -p ack -e 40 -c 1 -i 32 -a 1 -x {3.0 0.0 -1 ------- null}
r -t 0.19368 -s 1 -d 2 -p cbr -e 210 -c 2 -i 29 -a 2 -x {1.0 3.1 24 ------- null}
+ -t 0.19368 -s 2 -d 3 -p cbr -e 210 -c 2 -i 29 -a 2 -x {1.0 3.1 24 ------- null}
- -t 0.19368 -s 2 -d 3 -p cbr -e 210 -c 2 -i 29 -a 2 -x {1.0 3.1 24 ------- null}
h -t 0.19368 -s 2 -d 3 -p cbr -e 210 -c 2 -i 29 -a 2 -x {1.0 3.1 -1 ------- null}
+ -t 0.19375 -s 1 -d 2 -p cbr -e 210 -c 2 -i 33 -a 2 -x {1.0 3.1 25 ------- null}
- -t 0.19375 -s 1 -d 2 -p cbr -e 210 -c 2 -i 33 -a 2 -x {1.0 3.1 25 ------- null}
h -t 0.19375 -s 1 -d 2 -p cbr -e 210 -c 2 -i 33 -a 2 -x {1.0 3.1 -1 ------- null}
r -t 0.19461 -s 2 -d 3 -p cbr -e 210 -c 2 -i 24 -a 2 -x {1.0 3.1 20 ------- null}
r -t 0.19629 -s 2 -d 3 -p cbr -e 210 -c 2 -i 26 -a 2 -x {1.0 3.1 21 ------- null}
r -t 0.19743 -s 1 -d 2 -p cbr -e 210 -c 2 -i 33 -a 2 -x {1.0 3.1 25 ------- null}
+ -t 0.19743 -s 2 -d 3 -p cbr -e 210 -c 2 -i 33 -a 2 -x {1.0 3.1 25 ------- null}
- -t 0.19743 -s 2 -d 3 -p cbr -e 210 -c 2 -i 33 -a 2 -x {1.0 3.1 25 ------- null}
h -t 0.19743 -s 2 -d 3 -p cbr -e 210 -c 2 -i 33 -a 2 -x {1.0 3.1 -1 ------- null}
+ -t 0.1975 -s 1 -d 2 -p cbr -e 210 -c 2 -i 34 -a 2 -x {1.0 3.1 26 ------- null}
- -t 0.1975 -s 1 -d 2 -p cbr -e 210 -c 2 -i 34 -a 2 -x {1.0 3.1 26 ------- null}
h -t 0.1975 -s 1 -d 2 -p cbr -e 210 -c 2 -i 34 -a 2 -x {1.0 3.1 -1 ------- null}
r -t 0.19797 -s 2 -d 3 -p cbr -e 210 -c 2 -i 27 -a 2 -x {1.0 3.1 22 ------- null}
r -t 0.19965 -s 2 -d 3 -p cbr -e 210 -c 2 -i 28 -a 2 -x {1.0 3.1 23 ------- null}
r -t 0.20118 -s 1 -d 2 -p cbr -e 210 -c 2 -i 34 -a 2 -x {1.0 3.1 26 ------- null}
+ -t 0.20118 -s 2 -d 3 -p cbr -e 210 -c 2 -i 34 -a 2 -x {1.0 3.1 26 ------- null}
- -t 0.20118 -s 2 -d 3 -p cbr -e 210 -c 2 -i 34 -a 2 -x {1.0 3.1 26 ------- null}
h -t 0.20118 -s 2 -d 3 -p cbr -e 210 -c 2 -i 34 -a 2 -x {1.0 3.1 -1 ------- null}
r -t 0.20125 -s 3 -d 2 -p ack -e 40 -c 1 -i 32 -a 1 -x {3.0 0.0 2 ------- null}
+ -t 0.20125 -s 2 -d 0 -p ack -e 40 -c 1 -i 32 -a 1 -x {3.0 0.0 2 ------- null}
- -t 0.20125 -s 2 -d 0 -p ack -e 40 -c 1 -i 32 -a 1 -x {3.0 0.0 2 ------- null}
h -t 0.20125 -s 2 -d 0 -p ack -e 40 -c 1 -i 32 -a 1 -x {3.0 0.0 -1 ------- null}
+ -t 0.20125 -s 1 -d 2 -p cbr -e 210 -c 2 -i 35 -a 2 -x {1.0 3.1 27 ------- null}
- -t 0.20125 -s 1 -d 2 -p cbr -e 210 -c 2 -i 35 -a 2 -x {1.0 3.1 27 ------- null}
h -t 0.20125 -s 1 -d 2 -p cbr -e 210 -c 2 -i 35 -a 2 -x {1.0 3.1 -1 ------- null}
r -t 0.20336 -s 2 -d 3 -p cbr -e 210 -c 2 -i 29 -a 2 -x {1.0 3.1 24 ------- null}
r -t 0.20493 -s 1 -d 2 -p cbr -e 210 -c 2 -i 35 -a 2 -x {1.0 3.1 27 ------- null}
+ -t 0.20493 -s 2 -d 3 -p cbr -e 210 -c 2 -i 35 -a 2 -x {1.0 3.1 27 ------- null}
- -t 0.20493 -s 2 -d 3 -p cbr -e 210 -c 2 -i 35 -a 2 -x {1.0 3.1 27 ------- null}
h -t 0.20493 -s 2 -d 3 -p cbr -e 210 -c 2 -i 35 -a 2 -x {1.0 3.1 -1 ------- null}
+ -t 0.205 -s 1 -d 2 -p cbr -e 210 -c 2 -i 36 -a 2 -x {1.0 3.1 28 ------- null}
- -t 0.205 -s 1 -d 2 -p cbr -e 210 -c 2 -i 36 -a 2 -x {1.0 3.1 28 ------- null}
h -t 0.205 -s 1 -d 2 -p cbr -e 210 -c 2 -i 36 -a 2 -x {1.0 3.1 -1 ------- null}
r -t 0.20711 -s 2 -d 3 -p cbr -e 210 -c 2 -i 33 -a 2 -x {1.0 3.1 25 ------- null}
r -t 0.20868 -s 1 -d 2 -p cbr -e 210 -c 2 -i 36 -a 2 -x {1.0 3.1 28 ------- null}
+ -t 0.20868 -s 2 -d 3 -p cbr -e 210 -c 2 -i 36 -a 2 -x {1.0 3.1 28 ------- null}
- -t 0.20868 -s 2 -d 3 -p cbr -e 210 -c 2 -i 36 -a 2 -x {1.0 3.1 28 ------- null}
h -t 0.20868 -s 2 -d 3 -p cbr -e 210 -c 2 -i 36 -a 2 -x {1.0 3.1 -1 ------- null}
+ -t 0.20875 -s 1 -d 2 -p cbr -e 210 -c 2 -i 37 -a 2 -x {1.0 3.1 29 ------- null}
- -t 0.20875 -s 1 -d 2 -p cbr -e 210 -c 2 -i 37 -a 2 -x {1.0 3.1 29 ------- null}
h -t 0.20875 -s 1 -d 2 -p cbr -e 210 -c 2 -i 37 -a 2 -x {1.0 3.1 -1 ------- null}
- -t 0.20895 -s 0 -d 2 -p tcp -e 1040 -c 1 -i 31 -a 1 -x {0.0 3.0 4 ------- null}
h -t 0.20895 -s 0 -d 2 -p tcp -e 1040 -c 1 -i 31 -a 1 -x {0.0 3.0 -1 ------- null}
r -t 0.20989 -s 2 -d 0 -p ack -e 40 -c 1 -i 32 -a 1 -x {3.0 0.0 2 ------- null}
+ -t 0.20989 -s 0 -d 2 -p tcp -e 1040 -c 1 -i 38 -a 1 -x {0.0 3.0 5 ------- null}
+ -t 0.20989 -s 0 -d 2 -p tcp -e 1040 -c 1 -i 39 -a 1 -x {0.0 3.0 6 ------- null}
r -t 0.21086 -s 2 -d 3 -p cbr -e 210 -c 2 -i 34 -a 2 -x {1.0 3.1 26 ------- null}
r -t 0.21243 -s 1 -d 2 -p cbr -e 210 -c 2 -i 37 -a 2 -x {1.0 3.1 29 ------- null}
+ -t 0.21243 -s 2 -d 3 -p cbr -e 210 -c 2 -i 37 -a 2 -x {1.0 3.1 29 ------- null}
- -t 0.21243 -s 2 -d 3 -p cbr -e 210 -c 2 -i 37 -a 2 -x {1.0 3.1 29 ------- null}
h -t 0.21243 -s 2 -d 3 -p cbr -e 210 -c 2 -i 37 -a 2 -x {1.0 3.1 -1 ------- null}
+ -t 0.2125 -s 1 -d 2 -p cbr -e 210 -c 2 -i 40 -a 2 -x {1.0 3.1 30 ------- null}
- -t 0.2125 -s 1 -d 2 -p cbr -e 210 -c 2 -i 40 -a 2 -x {1.0 3.1 30 ------- null}
h -t 0.2125 -s 1 -d 2 -p cbr -e 210 -c 2 -i 40 -a 2 -x {1.0 3.1 -1 ------- null}
r -t 0.21461 -s 2 -d 3 -p cbr -e 210 -c 2 -i 35 -a 2 -x {1.0 3.1 27 ------- null}
r -t 0.21618 -s 1 -d 2 -p cbr -e 210 -c 2 -i 40 -a 2 -x {1.0 3.1 30 ------- null}
+ -t 0.21618 -s 2 -d 3 -p cbr -e 210 -c 2 -i 40 -a 2 -x {1.0 3.1 30 ------- null}
- -t 0.21618 -s 2 -d 3 -p cbr -e 210 -c 2 -i 40 -a 2 -x {1.0 3.1 30 ------- null}
h -t 0.21618 -s 2 -d 3 -p cbr -e 210 -c 2 -i 40 -a 2 -x {1.0 3.1 -1 ------- null}
+ -t 0.21625 -s 1 -d 2 -p cbr -e 210 -c 2 -i 41 -a 2 -x {1.0 3.1 31 ------- null}
- -t 0.21625 -s 1 -d 2 -p cbr -e 210 -c 2 -i 41 -a 2 -x {1.0 3.1 31 ------- null}
h -t 0.21625 -s 1 -d 2 -p cbr -e 210 -c 2 -i 41 -a 2 -x {1.0 3.1 -1 ------- null}
r -t 0.21695 -s 0 -d 2 -p tcp -e 1040 -c 1 -i 30 -a 1 -x {0.0 3.0 3 ------- null}
+ -t 0.21695 -s 2 -d 3 -p tcp -e 1040 -c 1 -i 30 -a 1 -x {0.0 3.0 3 ------- null}
- -t 0.21786 -s 2 -d 3 -p tcp -e 1040 -c 1 -i 30 -a 1 -x {0.0 3.0 3 ------- null}
h -t 0.21786 -s 2 -d 3 -p tcp -e 1040 -c 1 -i 30 -a 1 -x {0.0 3.0 -1 ------- null}
r -t 0.21836 -s 2 -d 3 -p cbr -e 210 -c 2 -i 36 -a 2 -x {1.0 3.1 28 ------- null}
r -t 0.21993 -s 1 -d 2 -p cbr -e 210 -c 2 -i 41 -a 2 -x {1.0 3.1 31 ------- null}
+ -t 0.21993 -s 2 -d 3 -p cbr -e 210 -c 2 -i 41 -a 2 -x {1.0 3.1 31 ------- null}
+ -t 0.22 -s 1 -d 2 -p cbr -e 210 -c 2 -i 42 -a 2 -x {1.0 3.1 32 ------- null}
- -t 0.22 -s 1 -d 2 -p cbr -e 210 -c 2 -i 42 -a 2 -x {1.0 3.1 32 ------- null}
h -t 0.22 -s 1 -d 2 -p cbr -e 210 -c 2 -i 42 -a 2 -x {1.0 3.1 -1 ------- null}
r -t 0.22211 -s 2 -d 3 -p cbr -e 210 -c 2 -i 37 -a 2 -x {1.0 3.1 29 ------- null}
r -t 0.22368 -s 1 -d 2 -p cbr -e 210 -c 2 -i 42 -a 2 -x {1.0 3.1 32 ------- null}
+ -t 0.22368 -s 2 -d 3 -p cbr -e 210 -c 2 -i 42 -a 2 -x {1.0 3.1 32 ------- null}
+ -t 0.22375 -s 1 -d 2 -p cbr -e 210 -c 2 -i 43 -a 2 -x {1.0 3.1 33 ------- null}
- -t 0.22375 -s 1 -d 2 -p cbr -e 210 -c 2 -i 43 -a 2 -x {1.0 3.1 33 ------- null}
h -t 0.22375 -s 1 -d 2 -p cbr -e 210 -c 2 -i 43 -a 2 -x {1.0 3.1 -1 ------- null}
- -t 0.22559 -s 0 -d 2 -p tcp -e 1040 -c 1 -i 38 -a 1 -x {0.0 3.0 5 ------- null}
h -t 0.22559 -s 0 -d 2 -p tcp -e 1040 -c 1 -i 38 -a 1 -x {0.0 3.0 -1 ------- null}
r -t 0.22586 -s 2 -d 3 -p cbr -e 210 -c 2 -i 40 -a 2 -x {1.0 3.1 30 ------- null}
- -t 0.22618 -s 2 -d 3 -p cbr -e 210 -c 2 -i 41 -a 2 -x {1.0 3.1 31 ------- null}
h -t 0.22618 -s 2 -d 3 -p cbr -e 210 -c 2 -i 41 -a 2 -x {1.0 3.1 -1 ------- null}
r -t 0.22743 -s 1 -d 2 -p cbr -e 210 -c 2 -i 43 -a 2 -x {1.0 3.1 33 ------- null}
+ -t 0.22743 -s 2 -d 3 -p cbr -e 210 -c 2 -i 43 -a 2 -x {1.0 3.1 33 ------- null}
+ -t 0.2275 -s 1 -d 2 -p cbr -e 210 -c 2 -i 44 -a 2 -x {1.0 3.1 34 ------- null}
- -t 0.2275 -s 1 -d 2 -p cbr -e 210 -c 2 -i 44 -a 2 -x {1.0 3.1 34 ------- null}
h -t 0.2275 -s 1 -d 2 -p cbr -e 210 -c 2 -i 44 -a 2 -x {1.0 3.1 -1 ------- null}
- -t 0.22786 -s 2 -d 3 -p cbr -e 210 -c 2 -i 42 -a 2 -x {1.0 3.1 32 ------- null}
h -t 0.22786 -s 2 -d 3 -p cbr -e 210 -c 2 -i 42 -a 2 -x {1.0 3.1 -1 ------- null}
- -t 0.22954 -s 2 -d 3 -p cbr -e 210 -c 2 -i 43 -a 2 -x {1.0 3.1 33 ------- null}
h -t 0.22954 -s 2 -d 3 -p cbr -e 210 -c 2 -i 43 -a 2 -x {1.0 3.1 -1 ------- null}
r -t 0.23118 -s 1 -d 2 -p cbr -e 210 -c 2 -i 44 -a 2 -x {1.0 3.1 34 ------- null}
+ -t 0.23118 -s 2 -d 3 -p cbr -e 210 -c 2 -i 44 -a 2 -x {1.0 3.1 34 ------- null}
- -t 0.23122 -s 2 -d 3 -p cbr -e 210 -c 2 -i 44 -a 2 -x {1.0 3.1 34 ------- null}
h -t 0.23122 -s 2 -d 3 -p cbr -e 210 -c 2 -i 44 -a 2 -x {1.0 3.1 -1 ------- null}
+ -t 0.23125 -s 1 -d 2 -p cbr -e 210 -c 2 -i 45 -a 2 -x {1.0 3.1 35 ------- null}
- -t 0.23125 -s 1 -d 2 -p cbr -e 210 -c 2 -i 45 -a 2 -x {1.0 3.1 35 ------- null}
h -t 0.23125 -s 1 -d 2 -p cbr -e 210 -c 2 -i 45 -a 2 -x {1.0 3.1 -1 ------- null}
r -t 0.23359 -s 0 -d 2 -p tcp -e 1040 -c 1 -i 31 -a 1 -x {0.0 3.0 4 ------- null}
+ -t 0.23359 -s 2 -d 3 -p tcp -e 1040 -c 1 -i 31 -a 1 -x {0.0 3.0 4 ------- null}
- -t 0.23359 -s 2 -d 3 -p tcp -e 1040 -c 1 -i 31 -a 1 -x {0.0 3.0 4 ------- null}
h -t 0.23359 -s 2 -d 3 -p tcp -e 1040 -c 1 -i 31 -a 1 -x {0.0 3.0 -1 ------- null}
r -t 0.23418 -s 2 -d 3 -p tcp -e 1040 -c 1 -i 30 -a 1 -x {0.0 3.0 3 ------- null}
+ -t 0.23418 -s 3 -d 2 -p ack -e 40 -c 1 -i 46 -a 1 -x {3.0 0.0 3 ------- null}
- -t 0.23418 -s 3 -d 2 -p ack -e 40 -c 1 -i 46 -a 1 -x {3.0 0.0 3 ------- null}
h -t 0.23418 -s 3 -d 2 -p ack -e 40 -c 1 -i 46 -a 1 -x {3.0 0.0 -1 ------- null}
r -t 0.23493 -s 1 -d 2 -p cbr -e 210 -c 2 -i 45 -a 2 -x {1.0 3.1 35 ------- null}
+ -t 0.23493 -s 2 -d 3 -p cbr -e 210 -c 2 -i 45 -a 2 -x {1.0 3.1 35 ------- null}
+ -t 0.235 -s 1 -d 2 -p cbr -e 210 -c 2 -i 47 -a 2 -x {1.0 3.1 36 ------- null}
- -t 0.235 -s 1 -d 2 -p cbr -e 210 -c 2 -i 47 -a 2 -x {1.0 3.1 36 ------- null}
h -t 0.235 -s 1 -d 2 -p cbr -e 210 -c 2 -i 47 -a 2 -x {1.0 3.1 -1 ------- null}
r -t 0.23586 -s 2 -d 3 -p cbr -e 210 -c 2 -i 41 -a 2 -x {1.0 3.1 31 ------- null}
r -t 0.23754 -s 2 -d 3 -p cbr -e 210 -c 2 -i 42 -a 2 -x {1.0 3.1 32 ------- null}
r -t 0.23868 -s 1 -d 2 -p cbr -e 210 -c 2 -i 47 -a 2 -x {1.0 3.1 36 ------- null}
+ -t 0.23868 -s 2 -d 3 -p cbr -e 210 -c 2 -i 47 -a 2 -x {1.0 3.1 36 ------- null}
+ -t 0.23875 -s 1 -d 2 -p cbr -e 210 -c 2 -i 48 -a 2 -x {1.0 3.1 37 ------- null}
- -t 0.23875 -s 1 -d 2 -p cbr -e 210 -c 2 -i 48 -a 2 -x {1.0 3.1 37 ------- null}
h -t 0.23875 -s 1 -d 2 -p cbr -e 210 -c 2 -i 48 -a 2 -x {1.0 3.1 -1 ------- null}
r -t 0.23922 -s 2 -d 3 -p cbr -e 210 -c 2 -i 43 -a 2 -x {1.0 3.1 33 ------- null}
r -t 0.2409 -s 2 -d 3 -p cbr -e 210 -c 2 -i 44 -a 2 -x {1.0 3.1 34 ------- null}